+ 0.1 0 1 cbr 150 ------- 0 0.0 2.0 0 0
- 0.1 0 1 cbr 150 ------- 0 0.0 2.0 0 0
+ 0.11 0 1 cbr 150 ------- 0 0.0 2.0 1 1
- 0.11 0 1 cbr 150 ------- 0 0.0 2.0 1 1
+ 0.12 0 1 cbr 150 ------- 0 0.0 2.0 2 2
- 0.12 0 1 cbr 150 ------- 0 0.0 2.0 2 2
+ 0.13 0 1 cbr 150 ------- 0 0.0 2.0 3 3
- 0.13 0 1 cbr 150 ------- 0 0.0 2.0 3 3
+ 0.14 0 1 cbr 150 ------- 0 0.0 2.0 4 4
- 0.14 0 1 cbr 150 ------- 0 0.0 2.0 4 4
+ 0.15 0 1 cbr 150 ------- 0 0.0 2.0 5 5
- 0.15 0 1 cbr 150 ------- 0 0.0 2.0 5 5
r 0.1512 0 1 cbr 150 ------- 0 0.0 2.0 0 0
+ 0.1512 1 2 cbr 150 ------- 0 0.0 2.0 0 0
- 0.1512 1 2 cbr 150 ------- 0 0.0 2.0 0 0
+ 0.16 0 1 cbr 150 ------- 0 0.0 2.0 6 6
- 0.16 0 1 cbr 150 ------- 0 0.0 2.0 6 6
r 0.1612 0 1 cbr 150 ------- 0 0.0 2.0 1 1
+ 0.1612 1 2 cbr 150 ------- 0 0.0 2.0 1 1
- 0.1632 1 2 cbr 150 ------- 0 0.0 2.0 1 1
r 0.1682 1 2 cbr 150 ------- 0 0.0 2.0 0 0
+ 0.17 0 1 cbr 150 ------- 0 0.0 2.0 7 7
- 0.17 0 1 cbr 150 ------- 0 0.0 2.0 7 7
r 0.1712 0 1 cbr 150 ------- 0 0.0 2.0 2 2
+ 0.1712 1 2 cbr 150 ------- 0 0.0 2.0 2 2
- 0.1752 1 2 cbr 150 ------- 0 0.0 2.0 2 2
+ 0.18 0 1 cbr 150 ------- 0 0.0 2.0 8 8
- 0.18 0 1 cbr 150 ------- 0 0.0 2.0 8 8
r 0.1802 1 2 cbr 150 ------- 0 0.0 2.0 1 1
r 0.1812 0 1 cbr 150 ------- 0 0.0 2.0 3 3
+ 0.1812 1 2 cbr 150 ------- 0 0.0 2.0 3 3
- 0.1872 1 2 cbr 150 ------- 0 0.0 2.0 3 3
+ 0.19 0 1 cbr 150 ------- 0 0.0 2.0 9 9
- 0.19 0 1 cbr 150 ------- 0 0.0 2.0 9 9
r 0.1912 0 1 cbr 150 ------- 0 0.0 2.0 4 4
+ 0.1912 1 2 cbr 150 ------- 0 0.0 2.0 4 4
r 0.1922 1 2 cbr 150 ------- 0 0.0 2.0 2 2
- 0.1992 1 2 cbr 150 ------- 0 0.0 2.0 4 4
+ 0.2 0 1 cbr 150 ------- 0 0.0 2.0 10 10
- 0.2 0 1 cbr 150 ------- 0 0.0 2.0 10 10
r 0.2012 0 1 cbr 150 ------- 0 0.0 2.0 5 5
+ 0.2012 1 2 cbr 150 ------- 0 0.0 2.0 5 5
r 0.2042 1 2 cbr 150 ------- 0 0.0 2.0 3 3
+ 0.21 0 1 cbr 150 ------- 0 0.0 2.0 11 11
- 0.21 0 1 cbr 150 ------- 0 0.0 2.0 11 11
r 0.2112 0 1 cbr 150 ------- 0 0.0 2.0 6 6
+ 0.2112 1 2 cbr 150 ------- 0 0.0 2.0 6 6
- 0.2112 1 2 cbr 150 ------- 0 0.0 2.0 5 5
r 0.2162 1 2 cbr 150 ------- 0 0.0 2.0 4 4
+ 0.22 0 1 cbr 150 ------- 0 0.0 2.0 12 12
- 0.22 0 1 cbr 150 ------- 0 0.0 2.0 12 12
r 0.2212 0 1 cbr 150 ------- 0 0.0 2.0 7 7
+ 0.2212 1 2 cbr 150 ------- 0 0.0 2.0 7 7
- 0.2232 1 2 cbr 150 ------- 0 0.0 2.0 6 6
r 0.2282 1 2 cbr 150 ------- 0 0.0 2.0 5 5
+ 0.23 0 1 cbr 150 ------- 0 0.0 2.0 13 13
- 0.23 0 1 cbr 150 ------- 0 0.0 2.0 13 13
r 0.2312 0 1 cbr 150 ------- 0 0.0 2.0 8 8
+ 0.2312 1 2 cbr 150 ------- 0 0.0 2.0 8 8
- 0.2352 1 2 cbr 150 ------- 0 0.0 2.0 7 7
+ 0.24 0 1 cbr 150 ------- 0 0.0 2.0 14 14
- 0.24 0 1 cbr 150 ------- 0 0.0 2.0 14 14
r 0.2402 1 2 cbr 150 ------- 0 0.0 2.0 6 6
r 0.2412 0 1 cbr 150 ------- 0 0.0 2.0 9 9
+ 0.2412 1 2 cbr 150 ------- 0 0.0 2.0 9 9
- 0.2472 1 2 cbr 150 ------- 0 0.0 2.0 8 8
+ 0.25 0 1 cbr 150 ------- 0 0.0 2.0 15 15
- 0.25 0 1 cbr 150 ------- 0 0.0 2.0 15 15
r 0.2512 0 1 cbr 150 ------- 0 0.0 2.0 10 10
+ 0.2512 1 2 cbr 150 ------- 0 0.0 2.0 10 10
r 0.2522 1 2 cbr 150 ------- 0 0.0 2.0 7 7
- 0.2592 1 2 cbr 150 ------- 0 0.0 2.0 9 9
+ 0.26 0 1 cbr 150 ------- 0 0.0 2.0 16 16
- 0.26 0 1 cbr 150 ------- 0 0.0 2.0 16 16
r 0.2612 0 1 cbr 150 ------- 0 0.0 2.0 11 11
+ 0.2612 1 2 cbr 150 ------- 0 0.0 2.0 11 11
r 0.2642 1 2 cbr 150 ------- 0 0.0 2.0 8 8
+ 0.27 0 1 cbr 150 ------- 0 0.0 2.0 17 17
- 0.27 0 1 cbr 150 ------- 0 0.0 2.0 17 17
r 0.2712 0 1 cbr 150 ------- 0 0.0 2.0 12 12
+ 0.2712 1 2 cbr 150 ------- 0 0.0 2.0 12 12
- 0.2712 1 2 cbr 150 ------- 0 0.0 2.0 10 10
r 0.2762 1 2 cbr 150 ------- 0 0.0 2.0 9 9
+ 0.28 0 1 cbr 150 ------- 0 0.0 2.0 18 18
- 0.28 0 1 cbr 150 ------- 0 0.0 2.0 18 18
r 0.2812 0 1 cbr 150 ------- 0 0.0 2.0 13 13
+ 0.2812 1 2 cbr 150 ------- 0 0.0 2.0 13 13
- 0.2832 1 2 cbr 150 ------- 0 0.0 2.0 11 11
r 0.2882 1 2 cbr 150 ------- 0 0.0 2.0 10 10
+ 0.29 0 1 cbr 150 ------- 0 0.0 2.0 19 19
- 0.29 0 1 cbr 150 ------- 0 0.0 2.0 19 19
r 0.2912 0 1 cbr 150 ------- 0 0.0 2.0 14 14
+ 0.2912 1 2 cbr 150 ------- 0 0.0 2.0 14 14
- 0.2952 1 2 cbr 150 ------- 0 0.0 2.0 12 12
+ 0.3 0 1 cbr 150 ------- 0 0.0 2.0 20 20
- 0.3 0 1 cbr 150 ------- 0 0.0 2.0 20 20
r 0.3002 1 2 cbr 150 ------- 0 0.0 2.0 11 11
r 0.3012 0 1 cbr 150 ------- 0 0.0 2.0 15 15
+ 0.3012 1 2 cbr 150 ------- 0 0.0 2.0 15 15
- 0.3072 1 2 cbr 150 ------- 0 0.0 2.0 13 13
+ 0.31 0 1 cbr 150 ------- 0 0.0 2.0 21 21
- 0.31 0 1 cbr 150 ------- 0 0.0 2.0 21 21
r 0.3112 0 1 cbr 150 ------- 0 0.0 2.0 16 16
+ 0.3112 1 2 cbr 150 ------- 0 0.0 2.0 16 16
r 0.3122 1 2 cbr 150 ------- 0 0.0 2.0 12 12
- 0.3192 1 2 cbr 150 ------- 0 0.0 2.0 14 14
+ 0.32 0 1 cbr 150 ------- 0 0.0 2.0 22 22
- 0.32 0 1 cbr 150 ------- 0 0.0 2.0 22 22
r 0.3212 0 1 cbr 150 ------- 0 0.0 2.0 17 17
+ 0.3212 1 2 cbr 150 ------- 0 0.0 2.0 17 17
r 0.3242 1 2 cbr 150 ------- 0 0.0 2.0 13 13
+ 0.33 0 1 cbr 150 ------- 0 0.0 2.0 23 23
- 0.33 0 1 cbr 150 ------- 0 0.0 2.0 23 23
r 0.3312 0 1 cbr 150 ------- 0 0.0 2.0 18 18
+ 0.3312 1 2 cbr 150 ------- 0 0.0 2.0 18 18
- 0.3312 1 2 cbr 150 ------- 0 0.0 2.0 15 15
r 0.3362 1 2 cbr 150 ------- 0 0.0 2.0 14 14
+ 0.34 0 1 cbr 150 ------- 0 0.0 2.0 24 24
- 0.34 0 1 cbr 150 ------- 0 0.0 2.0 24 24
r 0.3412 0 1 cbr 150 ------- 0 0.0 2.0 19 19
+ 0.3412 1 2 cbr 150 ------- 0 0.0 2.0 19 19
- 0.3432 1 2 cbr 150 ------- 0 0.0 2.0 16 16
r 0.3482 1 2 cbr 150 ------- 0 0.0 2.0 15 15
+ 0.35 0 1 cbr 150 ------- 0 0.0 2.0 25 25
- 0.35 0 1 cbr 150 ------- 0 0.0 2.0 25 25
r 0.3512 0 1 cbr 150 ------- 0 0.0 2.0 20 20
+ 0.3512 1 2 cbr 150 ------- 0 0.0 2.0 20 20
- 0.3552 1 2 cbr 150 ------- 0 0.0 2.0 17 17
+ 0.36 0 1 cbr 150 ------- 0 0.0 2.0 26 26
- 0.36 0 1 cbr 150 ------- 0 0.0 2.0 26 26
r 0.3602 1 2 cbr 150 ------- 0 0.0 2.0 16 16
r 0.3612 0 1 cbr 150 ------- 0 0.0 2.0 21 21
+ 0.3612 1 2 cbr 150 ------- 0 0.0 2.0 21 21
- 0.3672 1 2 cbr 150 ------- 0 0.0 2.0 18 18
+ 0.37 0 1 cbr 150 ------- 0 0.0 2.0 27 27
- 0.37 0 1 cbr 150 ------- 0 0.0 2.0 27 27
r 0.3712 0 1 cbr 150 ------- 0 0.0 2.0 22 22
+ 0.3712 1 2 cbr 150 ------- 0 0.0 2.0 22 22
r 0.3722 1 2 cbr 150 ------- 0 0.0 2.0 17 17
- 0.3792 1 2 cbr 150 ------- 0 0.0 2.0 19 19
+ 0.38 0 1 cbr 150 ------- 0 0.0 2.0 28 28
- 0.38 0 1 cbr 150 ------- 0 0.0 2.0 28 28
r 0.3812 0 1 cbr 150 ------- 0 0.0 2.0 23 23
+ 0.3812 1 2 cbr 150 ------- 0 0.0 2.0 23 23
r 0.3842 1 2 cbr 150 ------- 0 0.0 2.0 18 18
+ 0.39 0 1 cbr 150 ------- 0 0.0 2.0 29 29
- 0.39 0 1 cbr 150 ------- 0 0.0 2.0 29 29
r 0.3912 0 1 cbr 150 ------- 0 0.0 2.0 24 24
+ 0.3912 1 2 cbr 150 ------- 0 0.0 2.0 24 24
- 0.3912 1 2 cbr 150 ------- 0 0.0 2.0 20 20
r 0.3962 1 2 cbr 150 ------- 0 0.0 2.0 19 19
+ 0.4 0 1 cbr 150 ------- 0 0.0 2.0 30 30
- 0.4 0 1 cbr 150 ------- 0 0.0 2.0 30 30
r 0.4012 0 1 cbr 150 ------- 0 0.0 2.0 25 25
+ 0.4012 1 2 cbr 150 ------- 0 0.0 2.0 25 25
- 0.4032 1 2 cbr 150 ------- 0 0.0 2.0 21 21
r 0.4082 1 2 cbr 150 ------- 0 0.0 2.0 20 20
+ 0.41 0 1 cbr 150 ------- 0 0.0 2.0 31 31
- 0.41 0 1 cbr 150 ------- 0 0.0 2.0 31 31
r 0.4112 0 1 cbr 150 ------- 0 0.0 2.0 26 26
+ 0.4112 1 2 cbr 150 ------- 0 0.0 2.0 26 26
- 0.4152 1 2 cbr 150 ------- 0 0.0 2.0 22 22
+ 0.42 0 1 cbr 150 ------- 0 0.0 2.0 32 32
- 0.42 0 1 cbr 150 ------- 0 0.0 2.0 32 32
r 0.4202 1 2 cbr 150 ------- 0 0.0 2.0 21 21
r 0.4212 0 1 cbr 150 ------- 0 0.0 2.0 27 27
+ 0.4212 1 2 cbr 150 ------- 0 0.0 2.0 27 27
- 0.4272 1 2 cbr 150 ------- 0 0.0 2.0 23 23
+ 0.43 0 1 cbr 150 ------- 0 0.0 2.0 33 33
- 0.43 0 1 cbr 150 ------- 0 0.0 2.0 33 33
r 0.4312 0 1 cbr 150 ------- 0 0.0 2.0 28 28
+ 0.4312 1 2 cbr 150 ------- 0 0.0 2.0 28 28
r 0.4322 1 2 cbr 150 ------- 0 0.0 2.0 22 22
- 0.4392 1 2 cbr 150 ------- 0 0.0 2.0 24 24
+ 0.44 0 1 cbr 150 ------- 0 0.0 2.0 34 34
- 0.44 0 1 cbr 150 ------- 0 0.0 2.0 34 34
r 0.4412 0 1 cbr 150 ------- 0 0.0 2.0 29 29
+ 0.4412 1 2 cbr 150 ------- 0 0.0 2.0 29 29
r 0.4442 1 2 cbr 150 ------- 0 0.0 2.0 23 23
+ 0.45 0 1 cbr 150 ------- 0 0.0 2.0 35 35
- 0.45 0 1 cbr 150 ------- 0 0.0 2.0 35 35
r 0.4512 0 1 cbr 150 ------- 0 0.0 2.0 30 30
+ 0.4512 1 2 cbr 150 ------- 0 0.0 2.0 30 30
- 0.4512 1 2 cbr 150 ------- 0 0.0 2.0 25 25
r 0.4562 1 2 cbr 150 ------- 0 0.0 2.0 24 24
+ 0.46 0 1 cbr 150 ------- 0 0.0 2.0 36 36
- 0.46 0 1 cbr 150 ------- 0 0.0 2.0 36 36
r 0.4612 0 1 cbr 150 ------- 0 0.0 2.0 31 31
+ 0.4612 1 2 cbr 150 ------- 0 0.0 2.0 31 31
- 0.4632 1 2 cbr 150 ------- 0 0.0 2.0 26 26
r 0.4682 1 2 cbr 150 ------- 0 0.0 2.0 25 25
+ 0.47 0 1 cbr 150 ------- 0 0.0 2.0 37 37
- 0.47 0 1 cbr 150 ------- 0 0.0 2.0 37 37
r 0.4712 0 1 cbr 150 ------- 0 0.0 2.0 32 32
+ 0.4712 1 2 cbr 150 ------- 0 0.0 2.0 32 32
- 0.4752 1 2 cbr 150 ------- 0 0.0 2.0 27 27
+ 0.48 0 1 cbr 150 ------- 0 0.0 2.0 38 38
- 0.48 0 1 cbr 150 ------- 0 0.0 2.0 38 38
r 0.4802 1 2 cbr 150 ------- 0 0.0 2.0 26 26
r 0.4812 0 1 cbr 150 ------- 0 0.0 2.0 33 33
+ 0.4812 1 2 cbr 150 ------- 0 0.0 2.0 33 33
- 0.4872 1 2 cbr 150 ------- 0 0.0 2.0 28 28
+ 0.49 0 1 cbr 150 ------- 0 0.0 2.0 39 39
- 0.49 0 1 cbr 150 ------- 0 0.0 2.0 39 39
r 0.4912 0 1 cbr 150 ------- 0 0.0 2.0 34 34
+ 0.4912 1 2 cbr 150 ------- 0 0.0 2.0 34 34
r 0.4922 1 2 cbr 150 ------- 0 0.0 2.0 27 27
- 0.4992 1 2 cbr 150 ------- 0 0.0 2.0 29 29
+ 0.5 0 1 cbr 150 ------- 0 0.0 2.0 40 40
- 0.5 0 1 cbr 150 ------- 0 0.0 2.0 40 40
r 0.5012 0 1 cbr 150 ------- 0 0.0 2.0 35 35
+ 0.5012 1 2 cbr 150 ------- 0 0.0 2.0 35 35
r 0.5042 1 2 cbr 150 ------- 0 0.0 2.0 28 28
+ 0.51 0 1 cbr 150 ------- 0 0.0 2.0 41 41
- 0.51 0 1 cbr 150 ------- 0 0.0 2.0 41 41
r 0.5112 0 1 cbr 150 ------- 0 0.0 2.0 36 36
+ 0.5112 1 2 cbr 150 ------- 0 0.0 2.0 36 36
- 0.5112 1 2 cbr 150 ------- 0 0.0 2.0 30 30
r 0.5162 1 2 cbr 150 ------- 0 0.0 2.0 29 29
+ 0.52 0 1 cbr 150 ------- 0 0.0 2.0 42 42
- 0.52 0 1 cbr 150 ------- 0 0.0 2.0 42 42
r 0.5212 0 1 cbr 150 ------- 0 0.0 2.0 37 37
+ 0.5212 1 2 cbr 150 ------- 0 0.0 2.0 37 37
- 0.5232 1 2 cbr 150 ------- 0 0.0 2.0 31 31
r 0.5282 1 2 cbr 150 ------- 0 0.0 2.0 30 30
+ 0.53 0 1 cbr 150 ------- 0 0.0 2.0 43 43
- 0.53 0 1 cbr 150 ------- 0 0.0 2.0 43 43
r 0.5312 0 1 cbr 150 ------- 0 0.0 2.0 38 38
+ 0.5312 1 2 cbr 150 ------- 0 0.0 2.0 38 38
- 0.5352 1 2 cbr 150 ------- 0 0.0 2.0 32 32
+ 0.54 0 1 cbr 150 ------- 0 0.0 2.0 44 44
- 0.54 0 1 cbr 150 ------- 0 0.0 2.0 44 44
r 0.5402 1 2 cbr 150 ------- 0 0.0 2.0 31 31
r 0.5412 0 1 cbr 150 ------- 0 0.0 2.0 39 39
+ 0.5412 1 2 cbr 150 ------- 0 0.0 2.0 39 39
- 0.5472 1 2 cbr 150 ------- 0 0.0 2.0 33 33
+ 0.55 0 1 cbr 150 ------- 0 0.0 2.0 45 45
- 0.55 0 1 cbr 150 ------- 0 0.0 2.0 45 45
r 0.5512 0 1 cbr 150 ------- 0 0.0 2.0 40 40
+ 0.5512 1 2 cbr 150 ------- 0 0.0 2.0 40 40
r 0.5522 1 2 cbr 150 ------- 0 0.0 2.0 32 32
- 0.5592 1 2 cbr 150 ------- 0 0.0 2.0 34 34
+ 0.56 0 1 cbr 150 ------- 0 0.0 2.0 46 46
- 0.56 0 1 cbr 150 ------- 0 0.0 2.0 46 46
r 0.5612 0 1 cbr 150 ------- 0 0.0 2.0 41 41
+ 0.5612 1 2 cbr 150 ------- 0 0.0 2.0 41 41
r 0.5642 1 2 cbr 150 ------- 0 0.0 2.0 33 33
+ 0.57 0 1 cbr 150 ------- 0 0.0 2.0 47 47
- 0.57 0 1 cbr 150 ------- 0 0.0 2.0 47 47
r 0.5712 0 1 cbr 150 ------- 0 0.0 2.0 42 42
+ 0.5712 1 2 cbr 150 ------- 0 0.0 2.0 42 42
- 0.5712 1 2 cbr 150 ------- 0 0.0 2.0 35 35
r 0.5762 1 2 cbr 150 ------- 0 0.0 2.0 34 34
+ 0.58 0 1 cbr 150 ------- 0 0.0 2.0 48 48
- 0.58 0 1 cbr 150 ------- 0 0.0 2.0 48 48
r 0.5812 0 1 cbr 150 ------- 0 0.0 2.0 43 43
+ 0.5812 1 2 cbr 150 ------- 0 0.0 2.0 43 43
- 0.5832 1 2 cbr 150 ------- 0 0.0 2.0 36 36
r 0.5882 1 2 cbr 150 ------- 0 0.0 2.0 35 35
+ 0.59 0 1 cbr 150 ------- 0 0.0 2.0 49 49
- 0.59 0 1 cbr 150 ------- 0 0.0 2.0 49 49
r 0.5912 0 1 cbr 150 ------- 0 0.0 2.0 44 44
+ 0.5912 1 2 cbr 150 ------- 0 0.0 2.0 44 44
- 0.5952 1 2 cbr 150 ------- 0 0.0 2.0 37 37
+ 0.6 0 1 cbr 150 ------- 0 0.0 2.0 50 50
- 0.6 0 1 cbr 150 ------- 0 0.0 2.0 50 50
r 0.6002 1 2 cbr 150 ------- 0 0.0 2.0 36 36
r 0.6012 0 1 cbr 150 ------- 0 0.0 2.0 45 45
+ 0.6012 1 2 cbr 150 ------- 0 0.0 2.0 45 45
- 0.6072 1 2 cbr 150 ------- 0 0.0 2.0 38 38
+ 0.61 0 1 cbr 150 ------- 0 0.0 2.0 51 51
- 0.61 0 1 cbr 150 ------- 0 0.0 2.0 51 51
r 0.6112 0 1 cbr 150 ------- 0 0.0 2.0 46 46
+ 0.6112 1 2 cbr 150 ------- 0 0.0 2.0 46 46
r 0.6122 1 2 cbr 150 ------- 0 0.0 2.0 37 37
- 0.6192 1 2 cbr 150 ------- 0 0.0 2.0 39 39
+ 0.62 0 1 cbr 150 ------- 0 0.0 2.0 52 52
- 0.62 0 1 cbr 150 ------- 0 0.0 2.0 52 52
r 0.6212 0 1 cbr 150 ------- 0 0.0 2.0 47 47
+ 0.6212 1 2 cbr 150 ------- 0 0.0 2.0 47 47
r 0.6242 1 2 cbr 150 ------- 0 0.0 2.0 38 38
+ 0.63 0 1 cbr 150 ------- 0 0.0 2.0 53 53
- 0.63 0 1 cbr 150 ------- 0 0.0 2.0 53 53
r 0.6312 0 1 cbr 150 ------- 0 0.0 2.0 48 48
+ 0.6312 1 2 cbr 150 ------- 0 0.0 2.0 48 48
- 0.6312 1 2 cbr 150 ------- 0 0.0 2.0 40 40
r 0.6362 1 2 cbr 150 ------- 0 0.0 2.0 39 39
+ 0.64 0 1 cbr 150 ------- 0 0.0 2.0 54 54
- 0.64 0 1 cbr 150 ------- 0 0.0 2.0 54 54
r 0.6412 0 1 cbr 150 ------- 0 0.0 2.0 49 49
+ 0.6412 1 2 cbr 150 ------- 0 0.0 2.0 49 49
- 0.6432 1 2 cbr 150 ------- 0 0.0 2.0 41 41
r 0.6482 1 2 cbr 150 ------- 0 0.0 2.0 40 40
+ 0.65 0 1 cbr 150 ------- 0 0.0 2.0 55 55
- 0.65 0 1 cbr 150 ------- 0 0.0 2.0 55 55
r 0.6512 0 1 cbr 150 ------- 0 0.0 2.0 50 50
+ 0.6512 1 2 cbr 150 ------- 0 0.0 2.0 50 50
- 0.6552 1 2 cbr 150 ------- 0 0.0 2.0 42 42
+ 0.66 0 1 cbr 150 ------- 0 0.0 2.0 56 56
- 0.66 0 1 cbr 150 ------- 0 0.0 2.0 56 56
r 0.6602 1 2 cbr 150 ------- 0 0.0 2.0 41 41
r 0.6612 0 1 cbr 150 ------- 0 0.0 2.0 51 51
+ 0.6612 1 2 cbr 150 ------- 0 0.0 2.0 51 51
- 0.6672 1 2 cbr 150 ------- 0 0.0 2.0 43 43
+ 0.67 0 1 cbr 150 ------- 0 0.0 2.0 57 57
- 0.67 0 1 cbr 150 ------- 0 0.0 2.0 57 57
r 0.6712 0 1 cbr 150 ------- 0 0.0 2.0 52 52
+ 0.6712 1 2 cbr 150 ------- 0 0.0 2.0 52 52
r 0.6722 1 2 cbr 150 ------- 0 0.0 2.0 42 42
- 0.6792 1 2 cbr 150 ------- 0 0.0 2.0 44 44
+ 0.68 0 1 cbr 150 ------- 0 0.0 2.0 58 58
- 0.68 0 1 cbr 150 ------- 0 0.0 2.0 58 58
r 0.6812 0 1 cbr 150 ------- 0 0.0 2.0 53 53
+ 0.6812 1 2 cbr 150 ------- 0 0.0 2.0 53 53
r 0.6842 1 2 cbr 150 ------- 0 0.0 2.0 43 43
+ 0.69 0 1 cbr 150 ------- 0 0.0 2.0 59 59
- 0.69 0 1 cbr 150 ------- 0 0.0 2.0 59 59
r 0.6912 0 1 cbr 150 ------- 0 0.0 2.0 54 54
+ 0.6912 1 2 cbr 150 ------- 0 0.0 2.0 54 54
d 0.6912 1 2 cbr 150 ------- 0 0.0 2.0 54 54
- 0.6912 1 2 cbr 150 ------- 0 0.0 2.0 45 45
r 0.6962 1 2 cbr 150 ------- 0 0.0 2.0 44 44
+ 0.7 0 1 cbr 150 ------- 0 0.0 2.0 60 60
- 0.7 0 1 cbr 150 ------- 0 0.0 2.0 60 60
r 0.7012 0 1 cbr 150 ------- 0 0.0 2.0 55 55
+ 0.7012 1 2 cbr 150 ------- 0 0.0 2.0 55 55
- 0.7032 1 2 cbr 150 ------- 0 0.0 2.0 46 46
r 0.7082 1 2 cbr 150 ------- 0 0.0 2.0 45 45
+ 0.71 0 1 cbr 150 ------- 0 0.0 2.0 61 61
- 0.71 0 1 cbr 150 ------- 0 0.0 2.0 61 61
r 0.7112 0 1 cbr 150 ------- 0 0.0 2.0 56 56
+ 0.7112 1 2 cbr 150 ------- 0 0.0 2.0 56 56
- 0.7152 1 2 cbr 150 ------- 0 0.0 2.0 47 47
+ 0.72 0 1 cbr 150 ------- 0 0.0 2.0 62 62
- 0.72 0 1 cbr 150 ------- 0 0.0 2.0 62 62
r 0.7202 1 2 cbr 150 ------- 0 0.0 2.0 46 46
r 0.7212 0 1 cbr 150 ------- 0 0.0 2.0 57 57
+ 0.7212 1 2 cbr 150 ------- 0 0.0 2.0 57 57
- 0.7272 1 2 cbr 150 ------- 0 0.0 2.0 48 48
+ 0.73 0 1 cbr 150 ------- 0 0.0 2.0 63 63
- 0.73 0 1 cbr 150 ------- 0 0.0 2.0 63 63
r 0.7312 0 1 cbr 150 ------- 0 0.0 2.0 58 58
+ 0.7312 1 2 cbr 150 ------- 0 0.0 2.0 58 58
r 0.7322 1 2 cbr 150 ------- 0 0.0 2.0 47 47
- 0.7392 1 2 cbr 150 ------- 0 0.0 2.0 49 49
+ 0.74 0 1 cbr 150 ------- 0 0.0 2.0 64 64
- 0.74 0 1 cbr 150 ------- 0 0.0 2.0 64 64
r 0.7412 0 1 cbr 150 ------- 0 0.0 2.0 59 59
+ 0.7412 1 2 cbr 150 ------- 0 0.0 2.0 59 59
r 0.7442 1 2 cbr 150 ------- 0 0.0 2.0 48 48
+ 0.75 0 1 cbr 150 ------- 0 0.0 2.0 65 65
- 0.75 0 1 cbr 150 ------- 0 0.0 2.0 65 65
r 0.7512 0 1 cbr 150 ------- 0 0.0 2.0 60 60
+ 0.7512 1 2 cbr 150 ------- 0 0.0 2.0 60 60
d 0.7512 1 2 cbr 150 ------- 0 0.0 2.0 60 60
- 0.7512 1 2 cbr 150 ------- 0 0.0 2.0 50 50
r 0.7562 1 2 cbr 150 ------- 0 0.0 2.0 49 49
+ 0.76 0 1 cbr 150 ------- 0 0.0 2.0 66 66
- 0.76 0 1 cbr 150 ------- 0 0.0 2.0 66 66
r 0.7612 0 1 cbr 150 ------- 0 0.0 2.0 61 61
+ 0.7612 1 2 cbr 150 ------- 0 0.0 2.0 61 61
- 0.7632 1 2 cbr 150 ------- 0 0.0 2.0 51 51
r 0.7682 1 2 cbr 150 ------- 0 0.0 2.0 50 50
+ 0.77 0 1 cbr 150 ------- 0 0.0 2.0 67 67
- 0.77 0 1 cbr 150 ------- 0 0.0 2.0 67 67
r 0.7712 0 1 cbr 150 ------- 0 0.0 2.0 62 62
+ 0.7712 1 2 cbr 150 ------- 0 0.0 2.0 62 62
- 0.7752 1 2 cbr 150 ------- 0 0.0 2.0 52 52
+ 0.78 0 1 cbr 150 ------- 0 0.0 2.0 68 68
- 0.78 0 1 cbr 150 ------- 0 0.0 2.0 68 68
r 0.7802 1 2 cbr 150 ------- 0 0.0 2.0 51 51
r 0.7812 0 1 cbr 150 ------- 0 0.0 2.0 63 63
+ 0.7812 1 2 cbr 150 ------- 0 0.0 2.0 63 63
- 0.7872 1 2 cbr 150 ------- 0 0.0 2.0 53 53
+ 0.79 0 1 cbr 150 ------- 0 0.0 2.0 69 69
- 0.79 0 1 cbr 150 ------- 0 0.0 2.0 69 69
r 0.7912 0 1 cbr 150 ------- 0 0.0 2.0 64 64
+ 0.7912 1 2 cbr 150 ------- 0 0.0 2.0 64 64
r 0.7922 1 2 cbr 150 ------- 0 0.0 2.0 52 52
- 0.7992 1 2 cbr 150 ------- 0 0.0 2.0 55 55
+ 0.8 0 1 cbr 150 ------- 0 0.0 2.0 70 70
- 0.8 0 1 cbr 150 ------- 0 0.0 2.0 70 70
r 0.8012 0 1 cbr 150 ------- 0 0.0 2.0 65 65
+ 0.8012 1 2 cbr 150 ------- 0 0.0 2.0 65 65
r 0.8042 1 2 cbr 150 ------- 0 0.0 2.0 53 53
+ 0.81 0 1 cbr 150 ------- 0 0.0 2.0 71 71
- 0.81 0 1 cbr 150 ------- 0 0.0 2.0 71 71
r 0.8112 0 1 cbr 150 ------- 0 0.0 2.0 66 66
+ 0.8112 1 2 cbr 150 ------- 0 0.0 2.0 66 66
d 0.8112 1 2 cbr 150 ------- 0 0.0 2.0 66 66
- 0.8112 1 2 cbr 150 ------- 0 0.0 2.0 56 56
r 0.8162 1 2 cbr 150 ------- 0 0.0 2.0 55 55
+ 0.82 0 1 cbr 150 ------- 0 0.0 2.0 72 72
- 0.82 0 1 cbr 150 ------- 0 0.0 2.0 72 72
r 0.8212 0 1 cbr 150 ------- 0 0.0 2.0 67 67
+ 0.8212 1 2 cbr 150 ------- 0 0.0 2.0 67 67
- 0.8232 1 2 cbr 150 ------- 0 0.0 2.0 57 57
r 0.8282 1 2 cbr 150 ------- 0 0.0 2.0 56 56
+ 0.83 0 1 cbr 150 ------- 0 0.0 2.0 73 73
- 0.83 0 1 cbr 150 ------- 0 0.0 2.0 73 73
r 0.8312 0 1 cbr 150 ------- 0 0.0 2.0 68 68
+ 0.8312 1 2 cbr 150 ------- 0 0.0 2.0 68 68
- 0.8352 1 2 cbr 150 ------- 0 0.0 2.0 58 58
+ 0.84 0 1 cbr 150 ------- 0 0.0 2.0 74 74
- 0.84 0 1 cbr 150 ------- 0 0.0 2.0 74 74
r 0.8402 1 2 cbr 150 ------- 0 0.0 2.0 57 57
r 0.8412 0 1 cbr 150 ------- 0 0.0 2.0 69 69
+ 0.8412 1 2 cbr 150 ------- 0 0.0 2.0 69 69
- 0.8472 1 2 cbr 150 ------- 0 0.0 2.0 59 59
+ 0.85 0 1 cbr 150 ------- 0 0.0 2.0 75 75
- 0.85 0 1 cbr 150 ------- 0 0.0 2.0 75 75
r 0.8512 0 1 cbr 150 ------- 0 0.0 2.0 70 70
+ 0.8512 1 2 cbr 150 ------- 0 0.0 2.0 70 70
r 0.8522 1 2 cbr 150 ------- 0 0.0 2.0 58 58
- 0.8592 1 2 cbr 150 ------- 0 0.0 2.0 61 61
+ 0.86 0 1 cbr 150 ------- 0 0.0 2.0 76 76
- 0.86 0 1 cbr 150 ------- 0 0.0 2.0 76 76
r 0.8612 0 1 cbr 150 ------- 0 0.0 2.0 71 71
+ 0.8612 1 2 cbr 150 ------- 0 0.0 2.0 71 71
r 0.8642 1 2 cbr 150 ------- 0 0.0 2.0 59 59
+ 0.87 0 1 cbr 150 ------- 0 0.0 2.0 77 77
- 0.87 0 1 cbr 150 ------- 0 0.0 2.0 77 77
r 0.8712 0 1 cbr 150 ------- 0 0.0 2.0 72 72
+ 0.8712 1 2 cbr 150 ------- 0 0.0 2.0 72 72
d 0.8712 1 2 cbr 150 ------- 0 0.0 2.0 72 72
- 0.8712 1 2 cbr 150 ------- 0 0.0 2.0 62 62
r 0.8762 1 2 cbr 150 ------- 0 0.0 2.0 61 61
+ 0.88 0 1 cbr 150 ------- 0 0.0 2.0 78 78
- 0.88 0 1 cbr 150 ------- 0 0.0 2.0 78 78
r 0.8812 0 1 cbr 150 ------- 0 0.0 2.0 73 73
+ 0.8812 1 2 cbr 150 ------- 0 0.0 2.0 73 73
- 0.8832 1 2 cbr 150 ------- 0 0.0 2.0 63 63
r 0.8882 1 2 cbr 150 ------- 0 0.0 2.0 62 62
+ 0.89 0 1 cbr 150 ------- 0 0.0 2.0 79 79
- 0.89 0 1 cbr 150 ------- 0 0.0 2.0 79 79
r 0.8912 0 1 cbr 150 ------- 0 0.0 2.0 74 74
+ 0.8912 1 2 cbr 150 ------- 0 0.0 2.0 74 74
- 0.8952 1 2 cbr 150 ------- 0 0.0 2.0 64 64
+ 0.9 0 1 cbr 150 ------- 0 0.0 2.0 80 80
- 0.9 0 1 cbr 150 ------- 0 0.0 2.0 80 80
r 0.9002 1 2 cbr 150 ------- 0 0.0 2.0 63 63
r 0.9012 0 1 cbr 150 ------- 0 0.0 2.0 75 75
+ 0.9012 1 2 cbr 150 ------- 0 0.0 2.0 75 75
- 0.9072 1 2 cbr 150 ------- 0 0.0 2.0 65 65
+ 0.91 0 1 cbr 150 ------- 0 0.0 2.0 81 81
- 0.91 0 1 cbr 150 ------- 0 0.0 2.0 81 81
r 0.9112 0 1 cbr 150 ------- 0 0.0 2.0 76 76
+ 0.9112 1 2 cbr 150 ------- 0 0.0 2.0 76 76
r 0.9122 1 2 cbr 150 ------- 0 0.0 2.0 64 64
- 0.9192 1 2 cbr 150 ------- 0 0.0 2.0 67 67
+ 0.92 0 1 cbr 150 ------- 0 0.0 2.0 82 82
- 0.92 0 1 cbr 150 ------- 0 0.0 2.0 82 82
r 0.9212 0 1 cbr 150 ------- 0 0.0 2.0 77 77
+ 0.9212 1 2 cbr 150 ------- 0 0.0 2.0 77 77
r 0.9242 1 2 cbr 150 ------- 0 0.0 2.0 65 65
+ 0.93 0 1 cbr 150 ------- 0 0.0 2.0 83 83
- 0.93 0 1 cbr 150 ------- 0 0.0 2.0 83 83
r 0.9312 0 1 cbr 150 ------- 0 0.0 2.0 78 78
+ 0.9312 1 2 cbr 150 ------- 0 0.0 2.0 78 78
d 0.9312 1 2 cbr 150 ------- 0 0.0 2.0 78 78
- 0.9312 1 2 cbr 150 ------- 0 0.0 2.0 68 68
r 0.9362 1 2 cbr 150 ------- 0 0.0 2.0 67 67
+ 0.94 0 1 cbr 150 ------- 0 0.0 2.0 84 84
- 0.94 0 1 cbr 150 ------- 0 0.0 2.0 84 84
r 0.9412 0 1 cbr 150 ------- 0 0.0 2.0 79 79
+ 0.9412 1 2 cbr 150 ------- 0 0.0 2.0 79 79
- 0.9432 1 2 cbr 150 ------- 0 0.0 2.0 69 69
r 0.9482 1 2 cbr 150 ------- 0 0.0 2.0 68 68
+ 0.95 0 1 cbr 150 ------- 0 0.0 2.0 85 85
- 0.95 0 1 cbr 150 ------- 0 0.0 2.0 85 85
r 0.9512 0 1 cbr 150 ------- 0 0.0 2.0 80 80
+ 0.9512 1 2 cbr 150 ------- 0 0.0 2.0 80 80
- 0.9552 1 2 cbr 150 ------- 0 0.0 2.0 70 70
+ 0.96 0 1 cbr 150 ------- 0 0.0 2.0 86 86
- 0.96 0 1 cbr 150 ------- 0 0.0 2.0 86 86
r 0.9602 1 2 cbr 150 ------- 0 0.0 2.0 69 69
r 0.9612 0 1 cbr 150 ------- 0 0.0 2.0 81 81
+ 0.9612 1 2 cbr 150 ------- 0 0.0 2.0 81 81
- 0.9672 1 2 cbr 150 ------- 0 0.0 2.0 71 71
+ 0.97 0 1 cbr 150 ------- 0 0.0 2.0 87 87
- 0.97 0 1 cbr 150 ------- 0 0.0 2.0 87 87
r 0.9712 0 1 cbr 150 ------- 0 0.0 2.0 82 82
+ 0.9712 1 2 cbr 150 ------- 0 0.0 2.0 82 82
r 0.9722 1 2 cbr 150 ------- 0 0.0 2.0 70 70
- 0.9792 1 2 cbr 150 ------- 0 0.0 2.0 73 73
+ 0.98 0 1 cbr 150 ------- 0 0.0 2.0 88 88
- 0.98 0 1 cbr 150 ------- 0 0.0 2.0 88 88
r 0.9812 0 1 cbr 150 ------- 0 0.0 2.0 83 83
+ 0.9812 1 2 cbr 150 ------- 0 0.0 2.0 83 83
r 0.9842 1 2 cbr 150 ------- 0 0.0 2.0 71 71
+ 0.99 0 1 cbr 150 ------- 0 0.0 2.0 89 89
- 0.99 0 1 cbr 150 ------- 0 0.0 2.0 89 89
r 0.9912 0 1 cbr 150 ------- 0 0.0 2.0 84 84
+ 0.9912 1 2 cbr 150 ------- 0 0.0 2.0 84 84
d 0.9912 1 2 cbr 150 ------- 0 0.0 2.0 84 84
- 0.9912 1 2 cbr 150 ------- 0 0.0 2.0 74 74
r 0.9962 1 2 cbr 150 ------- 0 0.0 2.0 73 73
+ 1 0 1 cbr 150 ------- 0 0.0 2.0 90 90
- 1 0 1 cbr 150 ------- 0 0.0 2.0 90 90
r 1.0012 0 1 cbr 150 ------- 0 0.0 2.0 85 85
+ 1.0012 1 2 cbr 150 ------- 0 0.0 2.0 85 85
- 1.0032 1 2 cbr 150 ------- 0 0.0 2.0 75 75
r 1.0082 1 2 cbr 150 ------- 0 0.0 2.0 74 74
+ 1.01 0 1 cbr 150 ------- 0 0.0 2.0 91 91
- 1.01 0 1 cbr 150 ------- 0 0.0 2.0 91 91
r 1.0112 0 1 cbr 150 ------- 0 0.0 2.0 86 86
+ 1.0112 1 2 cbr 150 ------- 0 0.0 2.0 86 86
- 1.0152 1 2 cbr 150 ------- 0 0.0 2.0 76 76
+ 1.02 0 1 cbr 150 ------- 0 0.0 2.0 92 92
- 1.02 0 1 cbr 150 ------- 0 0.0 2.0 92 92
r 1.0202 1 2 cbr 150 ------- 0 0.0 2.0 75 75
r 1.0212 0 1 cbr 150 ------- 0 0.0 2.0 87 87
+ 1.0212 1 2 cbr 150 ------- 0 0.0 2.0 87 87
- 1.0272 1 2 cbr 150 ------- 0 0.0 2.0 77 77
+ 1.03 0 1 cbr 150 ------- 0 0.0 2.0 93 93
- 1.03 0 1 cbr 150 ------- 0 0.0 2.0 93 93
r 1.0312 0 1 cbr 150 ------- 0 0.0 2.0 88 88
+ 1.0312 1 2 cbr 150 ------- 0 0.0 2.0 88 88
r 1.0322 1 2 cbr 150 ------- 0 0.0 2.0 76 76
- 1.0392 1 2 cbr 150 ------- 0 0.0 2.0 79 79
+ 1.04 0 1 cbr 150 ------- 0 0.0 2.0 94 94
- 1.04 0 1 cbr 150 ------- 0 0.0 2.0 94 94
r 1.0412 0 1 cbr 150 ------- 0 0.0 2.0 89 89
+ 1.0412 1 2 cbr 150 ------- 0 0.0 2.0 89 89
r 1.0442 1 2 cbr 150 ------- 0 0.0 2.0 77 77
+ 1.05 0 1 cbr 150 ------- 0 0.0 2.0 95 95
- 1.05 0 1 cbr 150 ------- 0 0.0 2.0 95 95
r 1.0512 0 1 cbr 150 ------- 0 0.0 2.0 90 90
+ 1.0512 1 2 cbr 150 ------- 0 0.0 2.0 90 90
d 1.0512 1 2 cbr 150 ------- 0 0.0 2.0 90 90
- 1.0512 1 2 cbr 150 ------- 0 0.0 2.0 80 80
r 1.0562 1 2 cbr 150 ------- 0 0.0 2.0 79 79
+ 1.06 0 1 cbr 150 ------- 0 0.0 2.0 96 96
- 1.06 0 1 cbr 150 ------- 0 0.0 2.0 96 96
r 1.0612 0 1 cbr 150 ------- 0 0.0 2.0 91 91
+ 1.0612 1 2 cbr 150 ------- 0 0.0 2.0 91 91
- 1.0632 1 2 cbr 150 ------- 0 0.0 2.0 81 81
r 1.0682 1 2 cbr 150 ------- 0 0.0 2.0 80 80
+ 1.07 0 1 cbr 150 ------- 0 0.0 2.0 97 97
- 1.07 0 1 cbr 150 ------- 0 0.0 2.0 97 97
r 1.0712 0 1 cbr 150 ------- 0 0.0 2.0 92 92
+ 1.0712 1 2 cbr 150 ------- 0 0.0 2.0 92 92
- 1.0752 1 2 cbr 150 ------- 0 0.0 2.0 82 82
+ 1.08 0 1 cbr 150 ------- 0 0.0 2.0 98 98
- 1.08 0 1 cbr 150 ------- 0 0.0 2.0 98 98
r 1.0802 1 2 cbr 150 ------- 0 0.0 2.0 81 81
r 1.0812 0 1 cbr 150 ------- 0 0.0 2.0 93 93
+ 1.0812 1 2 cbr 150 ------- 0 0.0 2.0 93 93
- 1.0872 1 2 cbr 150 ------- 0 0.0 2.0 83 83
+ 1.09 0 1 cbr 150 ------- 0 0.0 2.0 99 99
- 1.09 0 1 cbr 150 ------- 0 0.0 2.0 99 99
r 1.0912 0 1 cbr 150 ------- 0 0.0 2.0 94 94
+ 1.0912 1 2 cbr 150 ------- 0 0.0 2.0 94 94
r 1.0922 1 2 cbr 150 ------- 0 0.0 2.0 82 82
- 1.0992 1 2 cbr 150 ------- 0 0.0 2.0 85 85
+ 1.1 0 1 cbr 150 ------- 0 0.0 2.0 100 100
- 1.1 0 1 cbr 150 ------- 0 0.0 2.0 100 100
r 1.1012 0 1 cbr 150 ------- 0 0.0 2.0 95 95
+ 1.1012 1 2 cbr 150 ------- 0 0.0 2.0 95 95
r 1.1042 1 2 cbr 150 ------- 0 0.0 2.0 83 83
+ 1.11 0 1 cbr 150 ------- 0 0.0 2.0 101 101
- 1.11 0 1 cbr 150 ------- 0 0.0 2.0 101 101
r 1.1112 0 1 cbr 150 ------- 0 0.0 2.0 96 96
+ 1.1112 1 2 cbr 150 ------- 0 0.0 2.0 96 96
d 1.1112 1 2 cbr 150 ------- 0 0.0 2.0 96 96
- 1.1112 1 2 cbr 150 ------- 0 0.0 2.0 86 86
r 1.1162 1 2 cbr 150 ------- 0 0.0 2.0 85 85
+ 1.12 0 1 cbr 150 ------- 0 0.0 2.0 102 102
- 1.12 0 1 cbr 150 ------- 0 0.0 2.0 102 102
r 1.1212 0 1 cbr 150 ------- 0 0.0 2.0 97 97
+ 1.1212 1 2 cbr 150 ------- 0 0.0 2.0 97 97
- 1.1232 1 2 cbr 150 ------- 0 0.0 2.0 87 87
r 1.1282 1 2 cbr 150 ------- 0 0.0 2.0 86 86
+ 1.13 0 1 cbr 150 ------- 0 0.0 2.0 103 103
- 1.13 0 1 cbr 150 ------- 0 0.0 2.0 103 103
r 1.1312 0 1 cbr 150 ------- 0 0.0 2.0 98 98
+ 1.1312 1 2 cbr 150 ------- 0 0.0 2.0 98 98
- 1.1352 1 2 cbr 150 ------- 0 0.0 2.0 88 88
+ 1.14 0 1 cbr 150 ------- 0 0.0 2.0 104 104
- 1.14 0 1 cbr 150 ------- 0 0.0 2.0 104 104
r 1.1402 1 2 cbr 150 ------- 0 0.0 2.0 87 87
r 1.1412 0 1 cbr 150 ------- 0 0.0 2.0 99 99
+ 1.1412 1 2 cbr 150 ------- 0 0.0 2.0 99 99
- 1.1472 1 2 cbr 150 ------- 0 0.0 2.0 89 89
+ 1.15 0 1 cbr 150 ------- 0 0.0 2.0 105 105
- 1.15 0 1 cbr 150 ------- 0 0.0 2.0 105 105
r 1.1512 0 1 cbr 150 ------- 0 0.0 2.0 100 100
+ 1.1512 1 2 cbr 150 ------- 0 0.0 2.0 100 100
r 1.1522 1 2 cbr 150 ------- 0 0.0 2.0 88 88
- 1.1592 1 2 cbr 150 ------- 0 0.0 2.0 91 91
+ 1.16 0 1 cbr 150 ------- 0 0.0 2.0 106 106
- 1.16 0 1 cbr 150 ------- 0 0.0 2.0 106 106
r 1.1612 0 1 cbr 150 ------- 0 0.0 2.0 101 101
+ 1.1612 1 2 cbr 150 ------- 0 0.0 2.0 101 101
r 1.1642 1 2 cbr 150 ------- 0 0.0 2.0 89 89
+ 1.17 0 1 cbr 150 ------- 0 0.0 2.0 107 107
- 1.17 0 1 cbr 150 ------- 0 0.0 2.0 107 107
r 1.1712 0 1 cbr 150 ------- 0 0.0 2.0 102 102
+ 1.1712 1 2 cbr 150 ------- 0 0.0 2.0 102 102
d 1.1712 1 2 cbr 150 ------- 0 0.0 2.0 102 102
- 1.1712 1 2 cbr 150 ------- 0 0.0 2.0 92 92
r 1.1762 1 2 cbr 150 ------- 0 0.0 2.0 91 91
+ 1.18 0 1 cbr 150 ------- 0 0.0 2.0 108 108
- 1.18 0 1 cbr 150 ------- 0 0.0 2.0 108 108
r 1.1812 0 1 cbr 150 ------- 0 0.0 2.0 103 103
+ 1.1812 1 2 cbr 150 ------- 0 0.0 2.0 103 103
- 1.1832 1 2 cbr 150 ------- 0 0.0 2.0 93 93
r 1.1882 1 2 cbr 150 ------- 0 0.0 2.0 92 92
+ 1.19 0 1 cbr 150 ------- 0 0.0 2.0 109 109
- 1.19 0 1 cbr 150 ------- 0 0.0 2.0 109 109
r 1.1912 0 1 cbr 150 ------- 0 0.0 2.0 104 104
+ 1.1912 1 2 cbr 150 ------- 0 0.0 2.0 104 104
- 1.1952 1 2 cbr 150 ------- 0 0.0 2.0 94 94
+ 1.2 0 1 cbr 150 ------- 0 0.0 2.0 110 110
- 1.2 0 1 cbr 150 ------- 0 0.0 2.0 110 110
r 1.2002 1 2 cbr 150 ------- 0 0.0 2.0 93 93
r 1.2012 0 1 cbr 150 ------- 0 0.0 2.0 105 105
+ 1.2012 1 2 cbr 150 ------- 0 0.0 2.0 105 105
- 1.2072 1 2 cbr 150 ------- 0 0.0 2.0 95 95
+ 1.21 0 1 cbr 150 ------- 0 0.0 2.0 111 111
- 1.21 0 1 cbr 150 ------- 0 0.0 2.0 111 111
r 1.2112 0 1 cbr 150 ------- 0 0.0 2.0 106 106
+ 1.2112 1 2 cbr 150 ------- 0 0.0 2.0 106 106
r 1.2122 1 2 cbr 150 ------- 0 0.0 2.0 94 94
- 1.2192 1 2 cbr 150 ------- 0 0.0 2.0 97 97
+ 1.22 0 1 cbr 150 ------- 0 0.0 2.0 112 112
- 1.22 0 1 cbr 150 ------- 0 0.0 2.0 112 112
r 1.2212 0 1 cbr 150 ------- 0 0.0 2.0 107 107
+ 1.2212 1 2 cbr 150 ------- 0 0.0 2.0 107 107
r 1.2242 1 2 cbr 150 ------- 0 0.0 2.0 95 95
+ 1.23 0 1 cbr 150 ------- 0 0.0 2.0 113 113
- 1.23 0 1 cbr 150 ------- 0 0.0 2.0 113 113
r 1.2312 0 1 cbr 150 ------- 0 0.0 2.0 108 108
+ 1.2312 1 2 cbr 150 ------- 0 0.0 2.0 108 108
d 1.2312 1 2 cbr 150 ------- 0 0.0 2.0 108 108
- 1.2312 1 2 cbr 150 ------- 0 0.0 2.0 98 98
r 1.2362 1 2 cbr 150 ------- 0 0.0 2.0 97 97
+ 1.24 0 1 cbr 150 ------- 0 0.0 2.0 114 114
- 1.24 0 1 cbr 150 ------- 0 0.0 2.0 114 114
r 1.2412 0 1 cbr 150 ------- 0 0.0 2.0 109 109
+ 1.2412 1 2 cbr 150 ------- 0 0.0 2.0 109 109
- 1.2432 1 2 cbr 150 ------- 0 0.0 2.0 99 99
r 1.2482 1 2 cbr 150 ------- 0 0.0 2.0 98 98
+ 1.25 0 1 cbr 150 ------- 0 0.0 2.0 115 115
- 1.25 0 1 cbr 150 ------- 0 0.0 2.0 115 115
r 1.2512 0 1 cbr 150 ------- 0 0.0 2.0 110 110
+ 1.2512 1 2 cbr 150 ------- 0 0.0 2.0 110 110
- 1.2552 1 2 cbr 150 ------- 0 0.0 2.0 100 100
+ 1.26 0 1 cbr 150 ------- 0 0.0 2.0 116 116
- 1.26 0 1 cbr 150 ------- 0 0.0 2.0 116 116
r 1.2602 1 2 cbr 150 ------- 0 0.0 2.0 99 99
r 1.2612 0 1 cbr 150 ------- 0 0.0 2.0 111 111
+ 1.2612 1 2 cbr 150 ------- 0 0.0 2.0 111 111
- 1.2672 1 2 cbr 150 ------- 0 0.0 2.0 101 101
+ 1.27 0 1 cbr 150 ------- 0 0.0 2.0 117 117
- 1.27 0 1 cbr 150 ------- 0 0.0 2.0 117 117
r 1.2712 0 1 cbr 150 ------- 0 0.0 2.0 112 112
+ 1.2712 1 2 cbr 150 ------- 0 0.0 2.0 112 112
r 1.2722 1 2 cbr 150 ------- 0 0.0 2.0 100 100
- 1.2792 1 2 cbr 150 ------- 0 0.0 2.0 103 103
+ 1.28 0 1 cbr 150 ------- 0 0.0 2.0 118 118
- 1.28 0 1 cbr 150 ------- 0 0.0 2.0 118 118
r 1.2812 0 1 cbr 150 ------- 0 0.0 2.0 113 113
+ 1.2812 1 2 cbr 150 ------- 0 0.0 2.0 113 113
r 1.2842 1 2 cbr 150 ------- 0 0.0 2.0 101 101
+ 1.29 0 1 cbr 150 ------- 0 0.0 2.0 119 119
- 1.29 0 1 cbr 150 ------- 0 0.0 2.0 119 119
r 1.2912 0 1 cbr 150 ------- 0 0.0 2.0 114 114
+ 1.2912 1 2 cbr 150 ------- 0 0.0 2.0 114 114
d 1.2912 1 2 cbr 150 ------- 0 0.0 2.0 114 114
- 1.2912 1 2 cbr 150 ------- 0 0.0 2.0 104 104
r 1.2962 1 2 cbr 150 ------- 0 0.0 2.0 103 103
+ 1.3 0 1 cbr 150 ------- 0 0.0 2.0 120 120
- 1.3 0 1 cbr 150 ------- 0 0.0 2.0 120 120
r 1.3012 0 1 cbr 150 ------- 0 0.0 2.0 115 115
+ 1.3012 1 2 cbr 150 ------- 0 0.0 2.0 115 115