+ 0.1 0 1 cbr 200 ------- 0 0.0 2.0 0 0
- 0.1 0 1 cbr 200 ------- 0 0.0 2.0 0 0
+ 0.11 0 1 cbr 200 ------- 0 0.0 2.0 1 1
- 0.11 0 1 cbr 200 ------- 0 0.0 2.0 1 1
+ 0.12 0 1 cbr 200 ------- 0 0.0 2.0 2 2
- 0.12 0 1 cbr 200 ------- 0 0.0 2.0 2 2
+ 0.13 0 1 cbr 200 ------- 0 0.0 2.0 3 3
- 0.13 0 1 cbr 200 ------- 0 0.0 2.0 3 3
+ 0.14 0 1 cbr 200 ------- 0 0.0 2.0 4 4
- 0.14 0 1 cbr 200 ------- 0 0.0 2.0 4 4
+ 0.15 0 1 cbr 200 ------- 0 0.0 2.0 5 5
- 0.15 0 1 cbr 200 ------- 0 0.0 2.0 5 5
r 0.1516 0 1 cbr 200 ------- 0 0.0 2.0 0 0
+ 0.1516 1 2 cbr 200 ------- 0 0.0 2.0 0 0
- 0.1516 1 2 cbr 200 ------- 0 0.0 2.0 0 0
+ 0.16 0 1 cbr 200 ------- 0 0.0 2.0 6 6
- 0.16 0 1 cbr 200 ------- 0 0.0 2.0 6 6
r 0.1616 0 1 cbr 200 ------- 0 0.0 2.0 1 1
+ 0.1616 1 2 cbr 200 ------- 0 0.0 2.0 1 1
- 0.1676 1 2 cbr 200 ------- 0 0.0 2.0 1 1
+ 0.17 0 1 cbr 200 ------- 0 0.0 2.0 7 7
- 0.17 0 1 cbr 200 ------- 0 0.0 2.0 7 7
r 0.1716 0 1 cbr 200 ------- 0 0.0 2.0 2 2
+ 0.1716 1 2 cbr 200 ------- 0 0.0 2.0 2 2
r 0.1726 1 2 cbr 200 ------- 0 0.0 2.0 0 0
+ 0.18 0 1 cbr 200 ------- 0 0.0 2.0 8 8
- 0.18 0 1 cbr 200 ------- 0 0.0 2.0 8 8
r 0.1816 0 1 cbr 200 ------- 0 0.0 2.0 3 3
+ 0.1816 1 2 cbr 200 ------- 0 0.0 2.0 3 3
- 0.1836 1 2 cbr 200 ------- 0 0.0 2.0 2 2
r 0.1886 1 2 cbr 200 ------- 0 0.0 2.0 1 1
+ 0.19 0 1 cbr 200 ------- 0 0.0 2.0 9 9
- 0.19 0 1 cbr 200 ------- 0 0.0 2.0 9 9
r 0.1916 0 1 cbr 200 ------- 0 0.0 2.0 4 4
+ 0.1916 1 2 cbr 200 ------- 0 0.0 2.0 4 4
- 0.1996 1 2 cbr 200 ------- 0 0.0 2.0 3 3
+ 0.2 0 1 cbr 200 ------- 0 0.0 2.0 10 10
- 0.2 0 1 cbr 200 ------- 0 0.0 2.0 10 10
r 0.2016 0 1 cbr 200 ------- 0 0.0 2.0 5 5
+ 0.2016 1 2 cbr 200 ------- 0 0.0 2.0 5 5
r 0.2046 1 2 cbr 200 ------- 0 0.0 2.0 2 2
+ 0.21 0 1 cbr 200 ------- 0 0.0 2.0 11 11
- 0.21 0 1 cbr 200 ------- 0 0.0 2.0 11 11
r 0.2116 0 1 cbr 200 ------- 0 0.0 2.0 6 6
+ 0.2116 1 2 cbr 200 ------- 0 0.0 2.0 6 6
- 0.2156 1 2 cbr 200 ------- 0 0.0 2.0 4 4
+ 0.22 0 1 cbr 200 ------- 0 0.0 2.0 12 12
- 0.22 0 1 cbr 200 ------- 0 0.0 2.0 12 12
r 0.2206 1 2 cbr 200 ------- 0 0.0 2.0 3 3
r 0.2216 0 1 cbr 200 ------- 0 0.0 2.0 7 7
+ 0.2216 1 2 cbr 200 ------- 0 0.0 2.0 7 7
+ 0.23 0 1 cbr 200 ------- 0 0.0 2.0 13 13
- 0.23 0 1 cbr 200 ------- 0 0.0 2.0 13 13
r 0.2316 0 1 cbr 200 ------- 0 0.0 2.0 8 8
+ 0.2316 1 2 cbr 200 ------- 0 0.0 2.0 8 8
- 0.2316 1 2 cbr 200 ------- 0 0.0 2.0 5 5
r 0.2366 1 2 cbr 200 ------- 0 0.0 2.0 4 4
+ 0.24 0 1 cbr 200 ------- 0 0.0 2.0 14 14
- 0.24 0 1 cbr 200 ------- 0 0.0 2.0 14 14
r 0.2416 0 1 cbr 200 ------- 0 0.0 2.0 9 9
+ 0.2416 1 2 cbr 200 ------- 0 0.0 2.0 9 9
- 0.2476 1 2 cbr 200 ------- 0 0.0 2.0 6 6
+ 0.25 0 1 cbr 200 ------- 0 0.0 2.0 15 15
- 0.25 0 1 cbr 200 ------- 0 0.0 2.0 15 15
r 0.2516 0 1 cbr 200 ------- 0 0.0 2.0 10 10
+ 0.2516 1 2 cbr 200 ------- 0 0.0 2.0 10 10
r 0.2526 1 2 cbr 200 ------- 0 0.0 2.0 5 5
+ 0.26 0 1 cbr 200 ------- 0 0.0 2.0 16 16
- 0.26 0 1 cbr 200 ------- 0 0.0 2.0 16 16
r 0.2616 0 1 cbr 200 ------- 0 0.0 2.0 11 11
+ 0.2616 1 2 cbr 200 ------- 0 0.0 2.0 11 11
- 0.2636 1 2 cbr 200 ------- 0 0.0 2.0 7 7
r 0.2686 1 2 cbr 200 ------- 0 0.0 2.0 6 6
+ 0.27 0 1 cbr 200 ------- 0 0.0 2.0 17 17
- 0.27 0 1 cbr 200 ------- 0 0.0 2.0 17 17
r 0.2716 0 1 cbr 200 ------- 0 0.0 2.0 12 12
+ 0.2716 1 2 cbr 200 ------- 0 0.0 2.0 12 12
- 0.2796 1 2 cbr 200 ------- 0 0.0 2.0 8 8
+ 0.28 0 1 cbr 200 ------- 0 0.0 2.0 18 18
- 0.28 0 1 cbr 200 ------- 0 0.0 2.0 18 18
r 0.2816 0 1 cbr 200 ------- 0 0.0 2.0 13 13
+ 0.2816 1 2 cbr 200 ------- 0 0.0 2.0 13 13
r 0.2846 1 2 cbr 200 ------- 0 0.0 2.0 7 7
+ 0.29 0 1 cbr 200 ------- 0 0.0 2.0 19 19
- 0.29 0 1 cbr 200 ------- 0 0.0 2.0 19 19
r 0.2916 0 1 cbr 200 ------- 0 0.0 2.0 14 14
+ 0.2916 1 2 cbr 200 ------- 0 0.0 2.0 14 14
- 0.2956 1 2 cbr 200 ------- 0 0.0 2.0 9 9
+ 0.3 0 1 cbr 200 ------- 0 0.0 2.0 20 20
- 0.3 0 1 cbr 200 ------- 0 0.0 2.0 20 20
r 0.3006 1 2 cbr 200 ------- 0 0.0 2.0 8 8
r 0.3016 0 1 cbr 200 ------- 0 0.0 2.0 15 15
+ 0.3016 1 2 cbr 200 ------- 0 0.0 2.0 15 15
+ 0.31 0 1 cbr 200 ------- 0 0.0 2.0 21 21
- 0.31 0 1 cbr 200 ------- 0 0.0 2.0 21 21
r 0.3116 0 1 cbr 200 ------- 0 0.0 2.0 16 16
+ 0.3116 1 2 cbr 200 ------- 0 0.0 2.0 16 16
- 0.3116 1 2 cbr 200 ------- 0 0.0 2.0 10 10
r 0.3166 1 2 cbr 200 ------- 0 0.0 2.0 9 9
+ 0.32 0 1 cbr 200 ------- 0 0.0 2.0 22 22
- 0.32 0 1 cbr 200 ------- 0 0.0 2.0 22 22
r 0.3216 0 1 cbr 200 ------- 0 0.0 2.0 17 17
+ 0.3216 1 2 cbr 200 ------- 0 0.0 2.0 17 17
- 0.3276 1 2 cbr 200 ------- 0 0.0 2.0 11 11
+ 0.33 0 1 cbr 200 ------- 0 0.0 2.0 23 23
- 0.33 0 1 cbr 200 ------- 0 0.0 2.0 23 23
r 0.3316 0 1 cbr 200 ------- 0 0.0 2.0 18 18
+ 0.3316 1 2 cbr 200 ------- 0 0.0 2.0 18 18
r 0.3326 1 2 cbr 200 ------- 0 0.0 2.0 10 10
+ 0.34 0 1 cbr 200 ------- 0 0.0 2.0 24 24
- 0.34 0 1 cbr 200 ------- 0 0.0 2.0 24 24
r 0.3416 0 1 cbr 200 ------- 0 0.0 2.0 19 19
+ 0.3416 1 2 cbr 200 ------- 0 0.0 2.0 19 19
- 0.3436 1 2 cbr 200 ------- 0 0.0 2.0 12 12
r 0.3486 1 2 cbr 200 ------- 0 0.0 2.0 11 11
+ 0.35 0 1 cbr 200 ------- 0 0.0 2.0 25 25
- 0.35 0 1 cbr 200 ------- 0 0.0 2.0 25 25
r 0.3516 0 1 cbr 200 ------- 0 0.0 2.0 20 20
+ 0.3516 1 2 cbr 200 ------- 0 0.0 2.0 20 20
- 0.3596 1 2 cbr 200 ------- 0 0.0 2.0 13 13
+ 0.36 0 1 cbr 200 ------- 0 0.0 2.0 26 26
- 0.36 0 1 cbr 200 ------- 0 0.0 2.0 26 26
r 0.3616 0 1 cbr 200 ------- 0 0.0 2.0 21 21
+ 0.3616 1 2 cbr 200 ------- 0 0.0 2.0 21 21
r 0.3646 1 2 cbr 200 ------- 0 0.0 2.0 12 12
+ 0.37 0 1 cbr 200 ------- 0 0.0 2.0 27 27
- 0.37 0 1 cbr 200 ------- 0 0.0 2.0 27 27
r 0.3716 0 1 cbr 200 ------- 0 0.0 2.0 22 22
+ 0.3716 1 2 cbr 200 ------- 0 0.0 2.0 22 22
- 0.3756 1 2 cbr 200 ------- 0 0.0 2.0 14 14
+ 0.38 0 1 cbr 200 ------- 0 0.0 2.0 28 28
- 0.38 0 1 cbr 200 ------- 0 0.0 2.0 28 28
r 0.3806 1 2 cbr 200 ------- 0 0.0 2.0 13 13
r 0.3816 0 1 cbr 200 ------- 0 0.0 2.0 23 23
+ 0.3816 1 2 cbr 200 ------- 0 0.0 2.0 23 23
+ 0.39 0 1 cbr 200 ------- 0 0.0 2.0 29 29
- 0.39 0 1 cbr 200 ------- 0 0.0 2.0 29 29
r 0.3916 0 1 cbr 200 ------- 0 0.0 2.0 24 24
+ 0.3916 1 2 cbr 200 ------- 0 0.0 2.0 24 24
d 0.3916 1 2 cbr 200 ------- 0 0.0 2.0 24 24
- 0.3916 1 2 cbr 200 ------- 0 0.0 2.0 15 15
r 0.3966 1 2 cbr 200 ------- 0 0.0 2.0 14 14
+ 0.4 0 1 cbr 200 ------- 0 0.0 2.0 30 30
- 0.4 0 1 cbr 200 ------- 0 0.0 2.0 30 30
r 0.4016 0 1 cbr 200 ------- 0 0.0 2.0 25 25
+ 0.4016 1 2 cbr 200 ------- 0 0.0 2.0 25 25
- 0.4076 1 2 cbr 200 ------- 0 0.0 2.0 16 16
+ 0.41 0 1 cbr 200 ------- 0 0.0 2.0 31 31
- 0.41 0 1 cbr 200 ------- 0 0.0 2.0 31 31
r 0.4116 0 1 cbr 200 ------- 0 0.0 2.0 26 26
+ 0.4116 1 2 cbr 200 ------- 0 0.0 2.0 26 26
r 0.4126 1 2 cbr 200 ------- 0 0.0 2.0 15 15
+ 0.42 0 1 cbr 200 ------- 0 0.0 2.0 32 32
- 0.42 0 1 cbr 200 ------- 0 0.0 2.0 32 32
r 0.4216 0 1 cbr 200 ------- 0 0.0 2.0 27 27
+ 0.4216 1 2 cbr 200 ------- 0 0.0 2.0 27 27
d 0.4216 1 2 cbr 200 ------- 0 0.0 2.0 27 27
- 0.4236 1 2 cbr 200 ------- 0 0.0 2.0 17 17
r 0.4286 1 2 cbr 200 ------- 0 0.0 2.0 16 16
+ 0.43 0 1 cbr 200 ------- 0 0.0 2.0 33 33
- 0.43 0 1 cbr 200 ------- 0 0.0 2.0 33 33
r 0.4316 0 1 cbr 200 ------- 0 0.0 2.0 28 28
+ 0.4316 1 2 cbr 200 ------- 0 0.0 2.0 28 28
- 0.4396 1 2 cbr 200 ------- 0 0.0 2.0 18 18
+ 0.44 0 1 cbr 200 ------- 0 0.0 2.0 34 34
- 0.44 0 1 cbr 200 ------- 0 0.0 2.0 34 34
r 0.4416 0 1 cbr 200 ------- 0 0.0 2.0 29 29
+ 0.4416 1 2 cbr 200 ------- 0 0.0 2.0 29 29
r 0.4446 1 2 cbr 200 ------- 0 0.0 2.0 17 17
+ 0.45 0 1 cbr 200 ------- 0 0.0 2.0 35 35
- 0.45 0 1 cbr 200 ------- 0 0.0 2.0 35 35
r 0.4516 0 1 cbr 200 ------- 0 0.0 2.0 30 30
+ 0.4516 1 2 cbr 200 ------- 0 0.0 2.0 30 30
d 0.4516 1 2 cbr 200 ------- 0 0.0 2.0 30 30
- 0.4556 1 2 cbr 200 ------- 0 0.0 2.0 19 19
+ 0.46 0 1 cbr 200 ------- 0 0.0 2.0 36 36
- 0.46 0 1 cbr 200 ------- 0 0.0 2.0 36 36
r 0.4606 1 2 cbr 200 ------- 0 0.0 2.0 18 18
r 0.4616 0 1 cbr 200 ------- 0 0.0 2.0 31 31
+ 0.4616 1 2 cbr 200 ------- 0 0.0 2.0 31 31
+ 0.47 0 1 cbr 200 ------- 0 0.0 2.0 37 37
- 0.47 0 1 cbr 200 ------- 0 0.0 2.0 37 37
r 0.4716 0 1 cbr 200 ------- 0 0.0 2.0 32 32
+ 0.4716 1 2 cbr 200 ------- 0 0.0 2.0 32 32
d 0.4716 1 2 cbr 200 ------- 0 0.0 2.0 32 32
- 0.4716 1 2 cbr 200 ------- 0 0.0 2.0 20 20
r 0.4766 1 2 cbr 200 ------- 0 0.0 2.0 19 19
+ 0.48 0 1 cbr 200 ------- 0 0.0 2.0 38 38
- 0.48 0 1 cbr 200 ------- 0 0.0 2.0 38 38
r 0.4816 0 1 cbr 200 ------- 0 0.0 2.0 33 33
+ 0.4816 1 2 cbr 200 ------- 0 0.0 2.0 33 33
- 0.4876 1 2 cbr 200 ------- 0 0.0 2.0 21 21
+ 0.49 0 1 cbr 200 ------- 0 0.0 2.0 39 39
- 0.49 0 1 cbr 200 ------- 0 0.0 2.0 39 39
r 0.4916 0 1 cbr 200 ------- 0 0.0 2.0 34 34
+ 0.4916 1 2 cbr 200 ------- 0 0.0 2.0 34 34
r 0.4926 1 2 cbr 200 ------- 0 0.0 2.0 20 20
+ 0.5 0 1 cbr 200 ------- 0 0.0 2.0 40 40
- 0.5 0 1 cbr 200 ------- 0 0.0 2.0 40 40
r 0.5016 0 1 cbr 200 ------- 0 0.0 2.0 35 35
+ 0.5016 1 2 cbr 200 ------- 0 0.0 2.0 35 35
d 0.5016 1 2 cbr 200 ------- 0 0.0 2.0 35 35
- 0.5036 1 2 cbr 200 ------- 0 0.0 2.0 22 22
r 0.5086 1 2 cbr 200 ------- 0 0.0 2.0 21 21
+ 0.51 0 1 cbr 200 ------- 0 0.0 2.0 41 41
- 0.51 0 1 cbr 200 ------- 0 0.0 2.0 41 41
r 0.5116 0 1 cbr 200 ------- 0 0.0 2.0 36 36
+ 0.5116 1 2 cbr 200 ------- 0 0.0 2.0 36 36
- 0.5196 1 2 cbr 200 ------- 0 0.0 2.0 23 23
+ 0.52 0 1 cbr 200 ------- 0 0.0 2.0 42 42
- 0.52 0 1 cbr 200 ------- 0 0.0 2.0 42 42
r 0.5216 0 1 cbr 200 ------- 0 0.0 2.0 37 37
+ 0.5216 1 2 cbr 200 ------- 0 0.0 2.0 37 37
r 0.5246 1 2 cbr 200 ------- 0 0.0 2.0 22 22
+ 0.53 0 1 cbr 200 ------- 0 0.0 2.0 43 43
- 0.53 0 1 cbr 200 ------- 0 0.0 2.0 43 43
r 0.5316 0 1 cbr 200 ------- 0 0.0 2.0 38 38
+ 0.5316 1 2 cbr 200 ------- 0 0.0 2.0 38 38
d 0.5316 1 2 cbr 200 ------- 0 0.0 2.0 38 38
- 0.5356 1 2 cbr 200 ------- 0 0.0 2.0 25 25
+ 0.54 0 1 cbr 200 ------- 0 0.0 2.0 44 44
- 0.54 0 1 cbr 200 ------- 0 0.0 2.0 44 44
r 0.5406 1 2 cbr 200 ------- 0 0.0 2.0 23 23
r 0.5416 0 1 cbr 200 ------- 0 0.0 2.0 39 39
+ 0.5416 1 2 cbr 200 ------- 0 0.0 2.0 39 39
+ 0.55 0 1 cbr 200 ------- 0 0.0 2.0 45 45
- 0.55 0 1 cbr 200 ------- 0 0.0 2.0 45 45
r 0.5516 0 1 cbr 200 ------- 0 0.0 2.0 40 40
+ 0.5516 1 2 cbr 200 ------- 0 0.0 2.0 40 40
d 0.5516 1 2 cbr 200 ------- 0 0.0 2.0 40 40
- 0.5516 1 2 cbr 200 ------- 0 0.0 2.0 26 26
r 0.5566 1 2 cbr 200 ------- 0 0.0 2.0 25 25
+ 0.56 0 1 cbr 200 ------- 0 0.0 2.0 46 46
- 0.56 0 1 cbr 200 ------- 0 0.0 2.0 46 46
r 0.5616 0 1 cbr 200 ------- 0 0.0 2.0 41 41
+ 0.5616 1 2 cbr 200 ------- 0 0.0 2.0 41 41
- 0.5676 1 2 cbr 200 ------- 0 0.0 2.0 28 28
+ 0.57 0 1 cbr 200 ------- 0 0.0 2.0 47 47
- 0.57 0 1 cbr 200 ------- 0 0.0 2.0 47 47
r 0.5716 0 1 cbr 200 ------- 0 0.0 2.0 42 42
+ 0.5716 1 2 cbr 200 ------- 0 0.0 2.0 42 42
r 0.5726 1 2 cbr 200 ------- 0 0.0 2.0 26 26
+ 0.58 0 1 cbr 200 ------- 0 0.0 2.0 48 48
- 0.58 0 1 cbr 200 ------- 0 0.0 2.0 48 48
r 0.5816 0 1 cbr 200 ------- 0 0.0 2.0 43 43
+ 0.5816 1 2 cbr 200 ------- 0 0.0 2.0 43 43
d 0.5816 1 2 cbr 200 ------- 0 0.0 2.0 43 43
- 0.5836 1 2 cbr 200 ------- 0 0.0 2.0 29 29
r 0.5886 1 2 cbr 200 ------- 0 0.0 2.0 28 28
+ 0.59 0 1 cbr 200 ------- 0 0.0 2.0 49 49
- 0.59 0 1 cbr 200 ------- 0 0.0 2.0 49 49
r 0.5916 0 1 cbr 200 ------- 0 0.0 2.0 44 44
+ 0.5916 1 2 cbr 200 ------- 0 0.0 2.0 44 44
- 0.5996 1 2 cbr 200 ------- 0 0.0 2.0 31 31
+ 0.6 0 1 cbr 200 ------- 0 0.0 2.0 50 50
- 0.6 0 1 cbr 200 ------- 0 0.0 2.0 50 50
r 0.6016 0 1 cbr 200 ------- 0 0.0 2.0 45 45
+ 0.6016 1 2 cbr 200 ------- 0 0.0 2.0 45 45
r 0.6046 1 2 cbr 200 ------- 0 0.0 2.0 29 29
+ 0.61 0 1 cbr 200 ------- 0 0.0 2.0 51 51
- 0.61 0 1 cbr 200 ------- 0 0.0 2.0 51 51
r 0.6116 0 1 cbr 200 ------- 0 0.0 2.0 46 46
+ 0.6116 1 2 cbr 200 ------- 0 0.0 2.0 46 46
d 0.6116 1 2 cbr 200 ------- 0 0.0 2.0 46 46
- 0.6156 1 2 cbr 200 ------- 0 0.0 2.0 33 33
+ 0.62 0 1 cbr 200 ------- 0 0.0 2.0 52 52
- 0.62 0 1 cbr 200 ------- 0 0.0 2.0 52 52
r 0.6206 1 2 cbr 200 ------- 0 0.0 2.0 31 31
r 0.6216 0 1 cbr 200 ------- 0 0.0 2.0 47 47
+ 0.6216 1 2 cbr 200 ------- 0 0.0 2.0 47 47
+ 0.63 0 1 cbr 200 ------- 0 0.0 2.0 53 53
- 0.63 0 1 cbr 200 ------- 0 0.0 2.0 53 53
r 0.6316 0 1 cbr 200 ------- 0 0.0 2.0 48 48
+ 0.6316 1 2 cbr 200 ------- 0 0.0 2.0 48 48
d 0.6316 1 2 cbr 200 ------- 0 0.0 2.0 48 48
- 0.6316 1 2 cbr 200 ------- 0 0.0 2.0 34 34
r 0.6366 1 2 cbr 200 ------- 0 0.0 2.0 33 33
+ 0.64 0 1 cbr 200 ------- 0 0.0 2.0 54 54
- 0.64 0 1 cbr 200 ------- 0 0.0 2.0 54 54
r 0.6416 0 1 cbr 200 ------- 0 0.0 2.0 49 49
+ 0.6416 1 2 cbr 200 ------- 0 0.0 2.0 49 49
- 0.6476 1 2 cbr 200 ------- 0 0.0 2.0 36 36
+ 0.65 0 1 cbr 200 ------- 0 0.0 2.0 55 55
- 0.65 0 1 cbr 200 ------- 0 0.0 2.0 55 55
r 0.6516 0 1 cbr 200 ------- 0 0.0 2.0 50 50
+ 0.6516 1 2 cbr 200 ------- 0 0.0 2.0 50 50
r 0.6526 1 2 cbr 200 ------- 0 0.0 2.0 34 34
+ 0.66 0 1 cbr 200 ------- 0 0.0 2.0 56 56
- 0.66 0 1 cbr 200 ------- 0 0.0 2.0 56 56
r 0.6616 0 1 cbr 200 ------- 0 0.0 2.0 51 51
+ 0.6616 1 2 cbr 200 ------- 0 0.0 2.0 51 51
d 0.6616 1 2 cbr 200 ------- 0 0.0 2.0 51 51
- 0.6636 1 2 cbr 200 ------- 0 0.0 2.0 37 37
r 0.6686 1 2 cbr 200 ------- 0 0.0 2.0 36 36
+ 0.67 0 1 cbr 200 ------- 0 0.0 2.0 57 57
- 0.67 0 1 cbr 200 ------- 0 0.0 2.0 57 57
r 0.6716 0 1 cbr 200 ------- 0 0.0 2.0 52 52
+ 0.6716 1 2 cbr 200 ------- 0 0.0 2.0 52 52
- 0.6796 1 2 cbr 200 ------- 0 0.0 2.0 39 39
+ 0.68 0 1 cbr 200 ------- 0 0.0 2.0 58 58
- 0.68 0 1 cbr 200 ------- 0 0.0 2.0 58 58
r 0.6816 0 1 cbr 200 ------- 0 0.0 2.0 53 53
+ 0.6816 1 2 cbr 200 ------- 0 0.0 2.0 53 53
r 0.6846 1 2 cbr 200 ------- 0 0.0 2.0 37 37
+ 0.69 0 1 cbr 200 ------- 0 0.0 2.0 59 59
- 0.69 0 1 cbr 200 ------- 0 0.0 2.0 59 59
r 0.6916 0 1 cbr 200 ------- 0 0.0 2.0 54 54
+ 0.6916 1 2 cbr 200 ------- 0 0.0 2.0 54 54
d 0.6916 1 2 cbr 200 ------- 0 0.0 2.0 54 54
- 0.6956 1 2 cbr 200 ------- 0 0.0 2.0 41 41
+ 0.7 0 1 cbr 200 ------- 0 0.0 2.0 60 60
- 0.7 0 1 cbr 200 ------- 0 0.0 2.0 60 60
r 0.7006 1 2 cbr 200 ------- 0 0.0 2.0 39 39
r 0.7016 0 1 cbr 200 ------- 0 0.0 2.0 55 55
+ 0.7016 1 2 cbr 200 ------- 0 0.0 2.0 55 55
+ 0.71 0 1 cbr 200 ------- 0 0.0 2.0 61 61
- 0.71 0 1 cbr 200 ------- 0 0.0 2.0 61 61
r 0.7116 0 1 cbr 200 ------- 0 0.0 2.0 56 56
+ 0.7116 1 2 cbr 200 ------- 0 0.0 2.0 56 56
d 0.7116 1 2 cbr 200 ------- 0 0.0 2.0 56 56
- 0.7116 1 2 cbr 200 ------- 0 0.0 2.0 42 42
r 0.7166 1 2 cbr 200 ------- 0 0.0 2.0 41 41
+ 0.72 0 1 cbr 200 ------- 0 0.0 2.0 62 62
- 0.72 0 1 cbr 200 ------- 0 0.0 2.0 62 62
r 0.7216 0 1 cbr 200 ------- 0 0.0 2.0 57 57
+ 0.7216 1 2 cbr 200 ------- 0 0.0 2.0 57 57
- 0.7276 1 2 cbr 200 ------- 0 0.0 2.0 44 44
+ 0.73 0 1 cbr 200 ------- 0 0.0 2.0 63 63
- 0.73 0 1 cbr 200 ------- 0 0.0 2.0 63 63
r 0.7316 0 1 cbr 200 ------- 0 0.0 2.0 58 58
+ 0.7316 1 2 cbr 200 ------- 0 0.0 2.0 58 58
r 0.7326 1 2 cbr 200 ------- 0 0.0 2.0 42 42
+ 0.74 0 1 cbr 200 ------- 0 0.0 2.0 64 64
- 0.74 0 1 cbr 200 ------- 0 0.0 2.0 64 64
r 0.7416 0 1 cbr 200 ------- 0 0.0 2.0 59 59
+ 0.7416 1 2 cbr 200 ------- 0 0.0 2.0 59 59
d 0.7416 1 2 cbr 200 ------- 0 0.0 2.0 59 59
- 0.7436 1 2 cbr 200 ------- 0 0.0 2.0 45 45
r 0.7486 1 2 cbr 200 ------- 0 0.0 2.0 44 44
+ 0.75 0 1 cbr 200 ------- 0 0.0 2.0 65 65
- 0.75 0 1 cbr 200 ------- 0 0.0 2.0 65 65
r 0.7516 0 1 cbr 200 ------- 0 0.0 2.0 60 60
+ 0.7516 1 2 cbr 200 ------- 0 0.0 2.0 60 60
- 0.7596 1 2 cbr 200 ------- 0 0.0 2.0 47 47
+ 0.76 0 1 cbr 200 ------- 0 0.0 2.0 66 66
- 0.76 0 1 cbr 200 ------- 0 0.0 2.0 66 66
r 0.7616 0 1 cbr 200 ------- 0 0.0 2.0 61 61
+ 0.7616 1 2 cbr 200 ------- 0 0.0 2.0 61 61
r 0.7646 1 2 cbr 200 ------- 0 0.0 2.0 45 45
+ 0.77 0 1 cbr 200 ------- 0 0.0 2.0 67 67
- 0.77 0 1 cbr 200 ------- 0 0.0 2.0 67 67
r 0.7716 0 1 cbr 200 ------- 0 0.0 2.0 62 62
+ 0.7716 1 2 cbr 200 ------- 0 0.0 2.0 62 62
d 0.7716 1 2 cbr 200 ------- 0 0.0 2.0 62 62
- 0.7756 1 2 cbr 200 ------- 0 0.0 2.0 49 49
+ 0.78 0 1 cbr 200 ------- 0 0.0 2.0 68 68
- 0.78 0 1 cbr 200 ------- 0 0.0 2.0 68 68
r 0.7806 1 2 cbr 200 ------- 0 0.0 2.0 47 47
r 0.7816 0 1 cbr 200 ------- 0 0.0 2.0 63 63
+ 0.7816 1 2 cbr 200 ------- 0 0.0 2.0 63 63
+ 0.79 0 1 cbr 200 ------- 0 0.0 2.0 69 69
- 0.79 0 1 cbr 200 ------- 0 0.0 2.0 69 69
r 0.7916 0 1 cbr 200 ------- 0 0.0 2.0 64 64
+ 0.7916 1 2 cbr 200 ------- 0 0.0 2.0 64 64
d 0.7916 1 2 cbr 200 ------- 0 0.0 2.0 64 64
- 0.7916 1 2 cbr 200 ------- 0 0.0 2.0 50 50
r 0.7966 1 2 cbr 200 ------- 0 0.0 2.0 49 49
+ 0.8 0 1 cbr 200 ------- 0 0.0 2.0 70 70
- 0.8 0 1 cbr 200 ------- 0 0.0 2.0 70 70
r 0.8016 0 1 cbr 200 ------- 0 0.0 2.0 65 65
+ 0.8016 1 2 cbr 200 ------- 0 0.0 2.0 65 65
- 0.8076 1 2 cbr 200 ------- 0 0.0 2.0 52 52
+ 0.81 0 1 cbr 200 ------- 0 0.0 2.0 71 71
- 0.81 0 1 cbr 200 ------- 0 0.0 2.0 71 71
r 0.8116 0 1 cbr 200 ------- 0 0.0 2.0 66 66
+ 0.8116 1 2 cbr 200 ------- 0 0.0 2.0 66 66
r 0.8126 1 2 cbr 200 ------- 0 0.0 2.0 50 50
+ 0.82 0 1 cbr 200 ------- 0 0.0 2.0 72 72
- 0.82 0 1 cbr 200 ------- 0 0.0 2.0 72 72
r 0.8216 0 1 cbr 200 ------- 0 0.0 2.0 67 67
+ 0.8216 1 2 cbr 200 ------- 0 0.0 2.0 67 67
d 0.8216 1 2 cbr 200 ------- 0 0.0 2.0 67 67
- 0.8236 1 2 cbr 200 ------- 0 0.0 2.0 53 53
r 0.8286 1 2 cbr 200 ------- 0 0.0 2.0 52 52
+ 0.83 0 1 cbr 200 ------- 0 0.0 2.0 73 73
- 0.83 0 1 cbr 200 ------- 0 0.0 2.0 73 73
r 0.8316 0 1 cbr 200 ------- 0 0.0 2.0 68 68
+ 0.8316 1 2 cbr 200 ------- 0 0.0 2.0 68 68
- 0.8396 1 2 cbr 200 ------- 0 0.0 2.0 55 55
+ 0.84 0 1 cbr 200 ------- 0 0.0 2.0 74 74
- 0.84 0 1 cbr 200 ------- 0 0.0 2.0 74 74
r 0.8416 0 1 cbr 200 ------- 0 0.0 2.0 69 69
+ 0.8416 1 2 cbr 200 ------- 0 0.0 2.0 69 69
r 0.8446 1 2 cbr 200 ------- 0 0.0 2.0 53 53
+ 0.85 0 1 cbr 200 ------- 0 0.0 2.0 75 75
- 0.85 0 1 cbr 200 ------- 0 0.0 2.0 75 75
r 0.8516 0 1 cbr 200 ------- 0 0.0 2.0 70 70
+ 0.8516 1 2 cbr 200 ------- 0 0.0 2.0 70 70
d 0.8516 1 2 cbr 200 ------- 0 0.0 2.0 70 70
- 0.8556 1 2 cbr 200 ------- 0 0.0 2.0 57 57
+ 0.86 0 1 cbr 200 ------- 0 0.0 2.0 76 76
- 0.86 0 1 cbr 200 ------- 0 0.0 2.0 76 76
r 0.8606 1 2 cbr 200 ------- 0 0.0 2.0 55 55
r 0.8616 0 1 cbr 200 ------- 0 0.0 2.0 71 71
+ 0.8616 1 2 cbr 200 ------- 0 0.0 2.0 71 71
+ 0.87 0 1 cbr 200 ------- 0 0.0 2.0 77 77
- 0.87 0 1 cbr 200 ------- 0 0.0 2.0 77 77
r 0.8716 0 1 cbr 200 ------- 0 0.0 2.0 72 72
+ 0.8716 1 2 cbr 200 ------- 0 0.0 2.0 72 72
d 0.8716 1 2 cbr 200 ------- 0 0.0 2.0 72 72
- 0.8716 1 2 cbr 200 ------- 0 0.0 2.0 58 58
r 0.8766 1 2 cbr 200 ------- 0 0.0 2.0 57 57
+ 0.88 0 1 cbr 200 ------- 0 0.0 2.0 78 78
- 0.88 0 1 cbr 200 ------- 0 0.0 2.0 78 78
r 0.8816 0 1 cbr 200 ------- 0 0.0 2.0 73 73
+ 0.8816 1 2 cbr 200 ------- 0 0.0 2.0 73 73
- 0.8876 1 2 cbr 200 ------- 0 0.0 2.0 60 60
+ 0.89 0 1 cbr 200 ------- 0 0.0 2.0 79 79
- 0.89 0 1 cbr 200 ------- 0 0.0 2.0 79 79
r 0.8916 0 1 cbr 200 ------- 0 0.0 2.0 74 74
+ 0.8916 1 2 cbr 200 ------- 0 0.0 2.0 74 74
r 0.8926 1 2 cbr 200 ------- 0 0.0 2.0 58 58
+ 0.9 0 1 cbr 200 ------- 0 0.0 2.0 80 80
- 0.9 0 1 cbr 200 ------- 0 0.0 2.0 80 80
r 0.9016 0 1 cbr 200 ------- 0 0.0 2.0 75 75
+ 0.9016 1 2 cbr 200 ------- 0 0.0 2.0 75 75
d 0.9016 1 2 cbr 200 ------- 0 0.0 2.0 75 75
- 0.9036 1 2 cbr 200 ------- 0 0.0 2.0 61 61
r 0.9086 1 2 cbr 200 ------- 0 0.0 2.0 60 60
+ 0.91 0 1 cbr 200 ------- 0 0.0 2.0 81 81
- 0.91 0 1 cbr 200 ------- 0 0.0 2.0 81 81
r 0.9116 0 1 cbr 200 ------- 0 0.0 2.0 76 76
+ 0.9116 1 2 cbr 200 ------- 0 0.0 2.0 76 76
- 0.9196 1 2 cbr 200 ------- 0 0.0 2.0 63 63
+ 0.92 0 1 cbr 200 ------- 0 0.0 2.0 82 82
- 0.92 0 1 cbr 200 ------- 0 0.0 2.0 82 82
r 0.9216 0 1 cbr 200 ------- 0 0.0 2.0 77 77
+ 0.9216 1 2 cbr 200 ------- 0 0.0 2.0 77 77
r 0.9246 1 2 cbr 200 ------- 0 0.0 2.0 61 61
+ 0.93 0 1 cbr 200 ------- 0 0.0 2.0 83 83
- 0.93 0 1 cbr 200 ------- 0 0.0 2.0 83 83
r 0.9316 0 1 cbr 200 ------- 0 0.0 2.0 78 78
+ 0.9316 1 2 cbr 200 ------- 0 0.0 2.0 78 78
d 0.9316 1 2 cbr 200 ------- 0 0.0 2.0 78 78
- 0.9356 1 2 cbr 200 ------- 0 0.0 2.0 65 65
+ 0.94 0 1 cbr 200 ------- 0 0.0 2.0 84 84
- 0.94 0 1 cbr 200 ------- 0 0.0 2.0 84 84
r 0.9406 1 2 cbr 200 ------- 0 0.0 2.0 63 63
r 0.9416 0 1 cbr 200 ------- 0 0.0 2.0 79 79
+ 0.9416 1 2 cbr 200 ------- 0 0.0 2.0 79 79
+ 0.95 0 1 cbr 200 ------- 0 0.0 2.0 85 85
- 0.95 0 1 cbr 200 ------- 0 0.0 2.0 85 85
r 0.9516 0 1 cbr 200 ------- 0 0.0 2.0 80 80
+ 0.9516 1 2 cbr 200 ------- 0 0.0 2.0 80 80
d 0.9516 1 2 cbr 200 ------- 0 0.0 2.0 80 80
- 0.9516 1 2 cbr 200 ------- 0 0.0 2.0 66 66
r 0.9566 1 2 cbr 200 ------- 0 0.0 2.0 65 65
+ 0.96 0 1 cbr 200 ------- 0 0.0 2.0 86 86
- 0.96 0 1 cbr 200 ------- 0 0.0 2.0 86 86
r 0.9616 0 1 cbr 200 ------- 0 0.0 2.0 81 81
+ 0.9616 1 2 cbr 200 ------- 0 0.0 2.0 81 81
- 0.9676 1 2 cbr 200 ------- 0 0.0 2.0 68 68
+ 0.97 0 1 cbr 200 ------- 0 0.0 2.0 87 87
- 0.97 0 1 cbr 200 ------- 0 0.0 2.0 87 87
r 0.9716 0 1 cbr 200 ------- 0 0.0 2.0 82 82
+ 0.9716 1 2 cbr 200 ------- 0 0.0 2.0 82 82
r 0.9726 1 2 cbr 200 ------- 0 0.0 2.0 66 66
+ 0.98 0 1 cbr 200 ------- 0 0.0 2.0 88 88
- 0.98 0 1 cbr 200 ------- 0 0.0 2.0 88 88
r 0.9816 0 1 cbr 200 ------- 0 0.0 2.0 83 83
+ 0.9816 1 2 cbr 200 ------- 0 0.0 2.0 83 83
d 0.9816 1 2 cbr 200 ------- 0 0.0 2.0 83 83
- 0.9836 1 2 cbr 200 ------- 0 0.0 2.0 69 69
r 0.9886 1 2 cbr 200 ------- 0 0.0 2.0 68 68
+ 0.99 0 1 cbr 200 ------- 0 0.0 2.0 89 89
- 0.99 0 1 cbr 200 ------- 0 0.0 2.0 89 89
r 0.9916 0 1 cbr 200 ------- 0 0.0 2.0 84 84
+ 0.9916 1 2 cbr 200 ------- 0 0.0 2.0 84 84
- 0.9996 1 2 cbr 200 ------- 0 0.0 2.0 71 71
+ 1 0 1 cbr 200 ------- 0 0.0 2.0 90 90
- 1 0 1 cbr 200 ------- 0 0.0 2.0 90 90
r 1.0016 0 1 cbr 200 ------- 0 0.0 2.0 85 85
+ 1.0016 1 2 cbr 200 ------- 0 0.0 2.0 85 85
r 1.0046 1 2 cbr 200 ------- 0 0.0 2.0 69 69
+ 1.01 0 1 cbr 200 ------- 0 0.0 2.0 91 91
- 1.01 0 1 cbr 200 ------- 0 0.0 2.0 91 91
r 1.0116 0 1 cbr 200 ------- 0 0.0 2.0 86 86
+ 1.0116 1 2 cbr 200 ------- 0 0.0 2.0 86 86
d 1.0116 1 2 cbr 200 ------- 0 0.0 2.0 86 86
- 1.0156 1 2 cbr 200 ------- 0 0.0 2.0 73 73
+ 1.02 0 1 cbr 200 ------- 0 0.0 2.0 92 92
- 1.02 0 1 cbr 200 ------- 0 0.0 2.0 92 92
r 1.0206 1 2 cbr 200 ------- 0 0.0 2.0 71 71
r 1.0216 0 1 cbr 200 ------- 0 0.0 2.0 87 87
+ 1.0216 1 2 cbr 200 ------- 0 0.0 2.0 87 87
+ 1.03 0 1 cbr 200 ------- 0 0.0 2.0 93 93
- 1.03 0 1 cbr 200 ------- 0 0.0 2.0 93 93
r 1.0316 0 1 cbr 200 ------- 0 0.0 2.0 88 88
+ 1.0316 1 2 cbr 200 ------- 0 0.0 2.0 88 88
d 1.0316 1 2 cbr 200 ------- 0 0.0 2.0 88 88
- 1.0316 1 2 cbr 200 ------- 0 0.0 2.0 74 74
r 1.0366 1 2 cbr 200 ------- 0 0.0 2.0 73 73
+ 1.04 0 1 cbr 200 ------- 0 0.0 2.0 94 94
- 1.04 0 1 cbr 200 ------- 0 0.0 2.0 94 94
r 1.0416 0 1 cbr 200 ------- 0 0.0 2.0 89 89
+ 1.0416 1 2 cbr 200 ------- 0 0.0 2.0 89 89
- 1.0476 1 2 cbr 200 ------- 0 0.0 2.0 76 76
+ 1.05 0 1 cbr 200 ------- 0 0.0 2.0 95 95
- 1.05 0 1 cbr 200 ------- 0 0.0 2.0 95 95
r 1.0516 0 1 cbr 200 ------- 0 0.0 2.0 90 90
+ 1.0516 1 2 cbr 200 ------- 0 0.0 2.0 90 90
r 1.0526 1 2 cbr 200 ------- 0 0.0 2.0 74 74
+ 1.06 0 1 cbr 200 ------- 0 0.0 2.0 96 96
- 1.06 0 1 cbr 200 ------- 0 0.0 2.0 96 96
r 1.0616 0 1 cbr 200 ------- 0 0.0 2.0 91 91
+ 1.0616 1 2 cbr 200 ------- 0 0.0 2.0 91 91
d 1.0616 1 2 cbr 200 ------- 0 0.0 2.0 91 91
- 1.0636 1 2 cbr 200 ------- 0 0.0 2.0 77 77
r 1.0686 1 2 cbr 200 ------- 0 0.0 2.0 76 76
+ 1.07 0 1 cbr 200 ------- 0 0.0 2.0 97 97
- 1.07 0 1 cbr 200 ------- 0 0.0 2.0 97 97
r 1.0716 0 1 cbr 200 ------- 0 0.0 2.0 92 92
+ 1.0716 1 2 cbr 200 ------- 0 0.0 2.0 92 92
- 1.0796 1 2 cbr 200 ------- 0 0.0 2.0 79 79
+ 1.08 0 1 cbr 200 ------- 0 0.0 2.0 98 98
- 1.08 0 1 cbr 200 ------- 0 0.0 2.0 98 98
r 1.0816 0 1 cbr 200 ------- 0 0.0 2.0 93 93
+ 1.0816 1 2 cbr 200 ------- 0 0.0 2.0 93 93
r 1.0846 1 2 cbr 200 ------- 0 0.0 2.0 77 77
+ 1.09 0 1 cbr 200 ------- 0 0.0 2.0 99 99
- 1.09 0 1 cbr 200 ------- 0 0.0 2.0 99 99
r 1.0916 0 1 cbr 200 ------- 0 0.0 2.0 94 94
+ 1.0916 1 2 cbr 200 ------- 0 0.0 2.0 94 94
d 1.0916 1 2 cbr 200 ------- 0 0.0 2.0 94 94
- 1.0956 1 2 cbr 200 ------- 0 0.0 2.0 81 81
+ 1.1 0 1 cbr 200 ------- 0 0.0 2.0 100 100
- 1.1 0 1 cbr 200 ------- 0 0.0 2.0 100 100
r 1.1006 1 2 cbr 200 ------- 0 0.0 2.0 79 79
r 1.1016 0 1 cbr 200 ------- 0 0.0 2.0 95 95
+ 1.1016 1 2 cbr 200 ------- 0 0.0 2.0 95 95
+ 1.11 0 1 cbr 200 ------- 0 0.0 2.0 101 101
- 1.11 0 1 cbr 200 ------- 0 0.0 2.0 101 101
r 1.1116 0 1 cbr 200 ------- 0 0.0 2.0 96 96
+ 1.1116 1 2 cbr 200 ------- 0 0.0 2.0 96 96
d 1.1116 1 2 cbr 200 ------- 0 0.0 2.0 96 96
- 1.1116 1 2 cbr 200 ------- 0 0.0 2.0 82 82
r 1.1166 1 2 cbr 200 ------- 0 0.0 2.0 81 81
+ 1.12 0 1 cbr 200 ------- 0 0.0 2.0 102 102
- 1.12 0 1 cbr 200 ------- 0 0.0 2.0 102 102
r 1.1216 0 1 cbr 200 ------- 0 0.0 2.0 97 97
+ 1.1216 1 2 cbr 200 ------- 0 0.0 2.0 97 97
- 1.1276 1 2 cbr 200 ------- 0 0.0 2.0 84 84
+ 1.13 0 1 cbr 200 ------- 0 0.0 2.0 103 103
- 1.13 0 1 cbr 200 ------- 0 0.0 2.0 103 103
r 1.1316 0 1 cbr 200 ------- 0 0.0 2.0 98 98
+ 1.1316 1 2 cbr 200 ------- 0 0.0 2.0 98 98
r 1.1326 1 2 cbr 200 ------- 0 0.0 2.0 82 82
+ 1.14 0 1 cbr 200 ------- 0 0.0 2.0 104 104
- 1.14 0 1 cbr 200 ------- 0 0.0 2.0 104 104
r 1.1416 0 1 cbr 200 ------- 0 0.0 2.0 99 99
+ 1.1416 1 2 cbr 200 ------- 0 0.0 2.0 99 99
d 1.1416 1 2 cbr 200 ------- 0 0.0 2.0 99 99
- 1.1436 1 2 cbr 200 ------- 0 0.0 2.0 85 85
r 1.1486 1 2 cbr 200 ------- 0 0.0 2.0 84 84
+ 1.15 0 1 cbr 200 ------- 0 0.0 2.0 105 105
- 1.15 0 1 cbr 200 ------- 0 0.0 2.0 105 105
r 1.1516 0 1 cbr 200 ------- 0 0.0 2.0 100 100
+ 1.1516 1 2 cbr 200 ------- 0 0.0 2.0 100 100
- 1.1596 1 2 cbr 200 ------- 0 0.0 2.0 87 87
+ 1.16 0 1 cbr 200 ------- 0 0.0 2.0 106 106
- 1.16 0 1 cbr 200 ------- 0 0.0 2.0 106 106
r 1.1616 0 1 cbr 200 ------- 0 0.0 2.0 101 101
+ 1.1616 1 2 cbr 200 ------- 0 0.0 2.0 101 101
r 1.1646 1 2 cbr 200 ------- 0 0.0 2.0 85 85
+ 1.17 0 1 cbr 200 ------- 0 0.0 2.0 107 107
- 1.17 0 1 cbr 200 ------- 0 0.0 2.0 107 107
r 1.1716 0 1 cbr 200 ------- 0 0.0 2.0 102 102
+ 1.1716 1 2 cbr 200 ------- 0 0.0 2.0 102 102
d 1.1716 1 2 cbr 200 ------- 0 0.0 2.0 102 102
- 1.1756 1 2 cbr 200 ------- 0 0.0 2.0 89 89
+ 1.18 0 1 cbr 200 ------- 0 0.0 2.0 108 108
- 1.18 0 1 cbr 200 ------- 0 0.0 2.0 108 108
r 1.1806 1 2 cbr 200 ------- 0 0.0 2.0 87 87
r 1.1816 0 1 cbr 200 ------- 0 0.0 2.0 103 103
+ 1.1816 1 2 cbr 200 ------- 0 0.0 2.0 103 103
+ 1.19 0 1 cbr 200 ------- 0 0.0 2.0 109 109
- 1.19 0 1 cbr 200 ------- 0 0.0 2.0 109 109
r 1.1916 0 1 cbr 200 ------- 0 0.0 2.0 104 104
+ 1.1916 1 2 cbr 200 ------- 0 0.0 2.0 104 104
d 1.1916 1 2 cbr 200 ------- 0 0.0 2.0 104 104
- 1.1916 1 2 cbr 200 ------- 0 0.0 2.0 90 90
r 1.1966 1 2 cbr 200 ------- 0 0.0 2.0 89 89
+ 1.2 0 1 cbr 200 ------- 0 0.0 2.0 110 110
- 1.2 0 1 cbr 200 ------- 0 0.0 2.0 110 110
r 1.2016 0 1 cbr 200 ------- 0 0.0 2.0 105 105
+ 1.2016 1 2 cbr 200 ------- 0 0.0 2.0 105 105
- 1.2076 1 2 cbr 200 ------- 0 0.0 2.0 92 92
+ 1.21 0 1 cbr 200 ------- 0 0.0 2.0 111 111
- 1.21 0 1 cbr 200 ------- 0 0.0 2.0 111 111
r 1.2116 0 1 cbr 200 ------- 0 0.0 2.0 106 106
+ 1.2116 1 2 cbr 200 ------- 0 0.0 2.0 106 106
r 1.2126 1 2 cbr 200 ------- 0 0.0 2.0 90 90
+ 1.22 0 1 cbr 200 ------- 0 0.0 2.0 112 112
- 1.22 0 1 cbr 200 ------- 0 0.0 2.0 112 112
r 1.2216 0 1 cbr 200 ------- 0 0.0 2.0 107 107
+ 1.2216 1 2 cbr 200 ------- 0 0.0 2.0 107 107
d 1.2216 1 2 cbr 200 ------- 0 0.0 2.0 107 107
- 1.2236 1 2 cbr 200 ------- 0 0.0 2.0 93 93
r 1.2286 1 2 cbr 200 ------- 0 0.0 2.0 92 92
+ 1.23 0 1 cbr 200 ------- 0 0.0 2.0 113 113
- 1.23 0 1 cbr 200 ------- 0 0.0 2.0 113 113
r 1.2316 0 1 cbr 200 ------- 0 0.0 2.0 108 108
+ 1.2316 1 2 cbr 200 ------- 0 0.0 2.0 108 108
- 1.2396 1 2 cbr 200 ------- 0 0.0 2.0 95 95
+ 1.24 0 1 cbr 200 ------- 0 0.0 2.0 114 114
- 1.24 0 1 cbr 200 ------- 0 0.0 2.0 114 114
r 1.2416 0 1 cbr 200 ------- 0 0.0 2.0 109 109
+ 1.2416 1 2 cbr 200 ------- 0 0.0 2.0 109 109
r 1.2446 1 2 cbr 200 ------- 0 0.0 2.0 93 93
+ 1.25 0 1 cbr 200 ------- 0 0.0 2.0 115 115
- 1.25 0 1 cbr 200 ------- 0 0.0 2.0 115 115
r 1.2516 0 1 cbr 200 ------- 0 0.0 2.0 110 110
+ 1.2516 1 2 cbr 200 ------- 0 0.0 2.0 110 110
d 1.2516 1 2 cbr 200 ------- 0 0.0 2.0 110 110
- 1.2556 1 2 cbr 200 ------- 0 0.0 2.0 97 97
+ 1.26 0 1 cbr 200 ------- 0 0.0 2.0 116 116
- 1.26 0 1 cbr 200 ------- 0 0.0 2.0 116 116
r 1.2606 1 2 cbr 200 ------- 0 0.0 2.0 95 95
r 1.2616 0 1 cbr 200 ------- 0 0.0 2.0 111 111
+ 1.2616 1 2 cbr 200 ------- 0 0.0 2.0 111 111
+ 1.27 0 1 cbr 200 ------- 0 0.0 2.0 117 117
- 1.27 0 1 cbr 200 ------- 0 0.0 2.0 117 117
r 1.2716 0 1 cbr 200 ------- 0 0.0 2.0 112 112
+ 1.2716 1 2 cbr 200 ------- 0 0.0 2.0 112 112
d 1.2716 1 2 cbr 200 ------- 0 0.0 2.0 112 112
- 1.2716 1 2 cbr 200 ------- 0 0.0 2.0 98 98
r 1.2766 1 2 cbr 200 ------- 0 0.0 2.0 97 97
+ 1.28 0 1 cbr 200 ------- 0 0.0 2.0 118 118
- 1.28 0 1 cbr 200 ------- 0 0.0 2.0 118 118
r 1.2816 0 1 cbr 200 ------- 0 0.0 2.0 113 113
+ 1.2816 1 2 cbr 200 ------- 0 0.0 2.0 113 113
- 1.2876 1 2 cbr 200 ------- 0 0.0 2.0 100 100
+ 1.29 0 1 cbr 200 ------- 0 0.0 2.0 119 119
- 1.29 0 1 cbr 200 ------- 0 0.0 2.0 119 119
r 1.2916 0 1 cbr 200 ------- 0 0.0 2.0 114 114
+ 1.2916 1 2 cbr 200 ------- 0 0.0 2.0 114 114
r 1.2926 1 2 cbr 200 ------- 0 0.0 2.0 98 98
+ 1.3 0 1 cbr 200 ------- 0 0.0 2.0 120 120
- 1.3 0 1 cbr 200 ------- 0 0.0 2.0 120 120
r 1.3016 0 1 cbr 200 ------- 0 0.0 2.0 115 115
+ 1.3016 1 2 cbr 200 ------- 0 0.0 2.0 115 115
d 1.3016 1 2 cbr 200 ------- 0 0.0 2.0 115 115
- 1.3036 1 2 cbr 200 ------- 0 0.0 2.0 101 101
r 1.3086 1 2 cbr 200 ------- 0 0.0 2.0 100 100
+ 1.31 0 1 cbr 200 ------- 0 0.0 2.0 121 121
- 1.31 0 1 cbr 200 ------- 0 0.0 2.0 121 121
r 1.3116 0 1 cbr 200 ------- 0 0.0 2.0 116 116
+ 1.3116 1 2 cbr 200 ------- 0 0.0 2.0 116 116
- 1.3196 1 2 cbr 200 ------- 0 0.0 2.0 103 103
+ 1.32 0 1 cbr 200 ------- 0 0.0 2.0 122 122
- 1.32 0 1 cbr 200 ------- 0 0.0 2.0 122 122
r 1.3216 0 1 cbr 200 ------- 0 0.0 2.0 117 117
+ 1.3216 1 2 cbr 200 ------- 0 0.0 2.0 117 117
r 1.3246 1 2 cbr 200 ------- 0 0.0 2.0 101 101
+ 1.33 0 1 cbr 200 ------- 0 0.0 2.0 123 123
- 1.33 0 1 cbr 200 ------- 0 0.0 2.0 123 123
r 1.3316 0 1 cbr 200 ------- 0 0.0 2.0 118 118
+ 1.3316 1 2 cbr 200 ------- 0 0.0 2.0 118 118
d 1.3316 1 2 cbr 200 ------- 0 0.0 2.0 118 118
- 1.3356 1 2 cbr 200 ------- 0 0.0 2.0 105 105
+ 1.34 0 1 cbr 200 ------- 0 0.0 2.0 124 124
- 1.34 0 1 cbr 200 ------- 0 0.0 2.0 124 124
r 1.3406 1 2 cbr 200 ------- 0 0.0 2.0 103 103
r 1.3416 0 1 cbr 200 ------- 0 0.0 2.0 119 119
+ 1.3416 1 2 cbr 200 ------- 0 0.0 2.0 119 119
+ 1.35 0 1 cbr 200 ------- 0 0.0 2.0 125 125