h 0.5 1 21 cbr 1000 ------- 0 1.0 0.0 0 0
h 0.5 2 21 cbr 1000 ------- 0 2.0 0.1 0 1
h 0.5 3 21 cbr 1000 ------- 0 3.0 0.2 0 2
h 0.5 4 21 cbr 1000 ------- 0 4.0 0.3 0 3
h 0.5 5 21 cbr 1000 ------- 0 5.0 0.4 0 4
h 0.5 6 21 cbr 1000 ------- 0 6.0 0.5 0 5
h 0.5 7 21 cbr 1000 ------- 0 7.0 0.6 0 6
h 0.5 8 21 cbr 1000 ------- 0 8.0 0.7 0 7
h 0.5 9 21 cbr 1000 ------- 0 9.0 0.8 0 8
h 0.5 10 21 cbr 1000 ------- 0 10.0 0.9 0 9
h 0.5 11 21 cbr 1000 ------- 0 11.0 0.10 0 10
h 0.5 12 21 cbr 1000 ------- 0 12.0 0.11 0 11
h 0.5 13 21 cbr 1000 ------- 0 13.0 0.12 0 12
h 0.5 14 21 cbr 1000 ------- 0 14.0 0.13 0 13
h 0.5 15 21 cbr 1000 ------- 0 15.0 0.14 0 14
h 0.5 16 21 cbr 1000 ------- 0 16.0 0.15 0 15
h 0.5 17 21 cbr 1000 ------- 0 17.0 0.16 0 16
h 0.5 18 21 cbr 1000 ------- 0 18.0 0.17 0 17
h 0.5 19 21 cbr 1000 ------- 0 19.0 0.18 0 18
h 0.5 20 21 cbr 1000 ------- 0 20.0 0.19 0 19
+ 0.5 1 21 cbr 1000 ------- 0 1.0 0.0 0 0
- 0.5 1 21 cbr 1000 ------- 0 1.0 0.0 0 0
+ 0.5 2 21 cbr 1000 ------- 0 2.0 0.1 0 1
- 0.5 2 21 cbr 1000 ------- 0 2.0 0.1 0 1
+ 0.5 3 21 cbr 1000 ------- 0 3.0 0.2 0 2
- 0.5 3 21 cbr 1000 ------- 0 3.0 0.2 0 2
+ 0.5 4 21 cbr 1000 ------- 0 4.0 0.3 0 3
- 0.5 4 21 cbr 1000 ------- 0 4.0 0.3 0 3
+ 0.5 5 21 cbr 1000 ------- 0 5.0 0.4 0 4
- 0.5 5 21 cbr 1000 ------- 0 5.0 0.4 0 4
+ 0.5 6 21 cbr 1000 ------- 0 6.0 0.5 0 5
- 0.5 6 21 cbr 1000 ------- 0 6.0 0.5 0 5
+ 0.5 7 21 cbr 1000 ------- 0 7.0 0.6 0 6
- 0.5 7 21 cbr 1000 ------- 0 7.0 0.6 0 6
+ 0.5 8 21 cbr 1000 ------- 0 8.0 0.7 0 7
- 0.5 8 21 cbr 1000 ------- 0 8.0 0.7 0 7
+ 0.5 9 21 cbr 1000 ------- 0 9.0 0.8 0 8
- 0.5 9 21 cbr 1000 ------- 0 9.0 0.8 0 8
+ 0.5 10 21 cbr 1000 ------- 0 10.0 0.9 0 9
- 0.5 10 21 cbr 1000 ------- 0 10.0 0.9 0 9
+ 0.5 11 21 cbr 1000 ------- 0 11.0 0.10 0 10
- 0.5 11 21 cbr 1000 ------- 0 11.0 0.10 0 10
+ 0.5 12 21 cbr 1000 ------- 0 12.0 0.11 0 11
- 0.5 12 21 cbr 1000 ------- 0 12.0 0.11 0 11
+ 0.5 13 21 cbr 1000 ------- 0 13.0 0.12 0 12
- 0.5 13 21 cbr 1000 ------- 0 13.0 0.12 0 12
+ 0.5 14 21 cbr 1000 ------- 0 14.0 0.13 0 13
- 0.5 14 21 cbr 1000 ------- 0 14.0 0.13 0 13
+ 0.5 15 21 cbr 1000 ------- 0 15.0 0.14 0 14
- 0.5 15 21 cbr 1000 ------- 0 15.0 0.14 0 14
+ 0.5 16 21 cbr 1000 ------- 0 16.0 0.15 0 15
- 0.5 16 21 cbr 1000 ------- 0 16.0 0.15 0 15
+ 0.5 17 21 cbr 1000 ------- 0 17.0 0.16 0 16
- 0.5 17 21 cbr 1000 ------- 0 17.0 0.16 0 16
+ 0.5 18 21 cbr 1000 ------- 0 18.0 0.17 0 17
- 0.5 18 21 cbr 1000 ------- 0 18.0 0.17 0 17
+ 0.5 19 21 cbr 1000 ------- 0 19.0 0.18 0 18
- 0.5 19 21 cbr 1000 ------- 0 19.0 0.18 0 18
+ 0.5 20 21 cbr 1000 ------- 0 20.0 0.19 0 19
- 0.5 20 21 cbr 1000 ------- 0 20.0 0.19 0 19
c 0.500004 20 21 cbr 1014 ------- 0 1.0 0.0 0 0
c 0.500004 19 21 cbr 1014 ------- 0 1.0 0.0 0 0
c 0.500004 18 21 cbr 1014 ------- 0 1.0 0.0 0 0
c 0.500004 17 21 cbr 1014 ------- 0 1.0 0.0 0 0
c 0.500004 16 21 cbr 1014 ------- 0 1.0 0.0 0 0
c 0.500004 15 21 cbr 1014 ------- 0 1.0 0.0 0 0
c 0.500004 14 21 cbr 1014 ------- 0 1.0 0.0 0 0
c 0.500004 13 21 cbr 1014 ------- 0 1.0 0.0 0 0
c 0.500004 12 21 cbr 1014 ------- 0 1.0 0.0 0 0
c 0.500004 11 21 cbr 1014 ------- 0 1.0 0.0 0 0
c 0.500004 10 21 cbr 1014 ------- 0 1.0 0.0 0 0
c 0.500004 9 21 cbr 1014 ------- 0 1.0 0.0 0 0
c 0.500004 8 21 cbr 1014 ------- 0 1.0 0.0 0 0
c 0.500004 7 21 cbr 1014 ------- 0 1.0 0.0 0 0
c 0.500004 6 21 cbr 1014 ------- 0 1.0 0.0 0 0
c 0.500004 5 21 cbr 1014 ------- 0 1.0 0.0 0 0
c 0.500004 4 21 cbr 1014 ------- 0 1.0 0.0 0 0
c 0.500004 3 21 cbr 1014 ------- 0 1.0 0.0 0 0
c 0.500004 2 21 cbr 1014 ------- 0 1.0 0.0 0 0
c 0.500004 1 21 cbr 1014 ------- 0 2.0 0.1 0 1
c 0.500136 18 21 cbr 1014 ------- 0 20.0 0.19 0 19
c 0.500136 17 21 cbr 1014 ------- 0 20.0 0.19 0 19
c 0.500136 15 21 cbr 1014 ------- 0 20.0 0.19 0 19
c 0.500136 13 21 cbr 1014 ------- 0 20.0 0.19 0 19
c 0.500136 12 21 cbr 1014 ------- 0 20.0 0.19 0 19
c 0.500136 8 21 cbr 1014 ------- 0 20.0 0.19 0 19
c 0.500136 7 21 cbr 1014 ------- 0 20.0 0.19 0 19
c 0.500136 4 21 cbr 1014 ------- 0 20.0 0.19 0 19
c 0.500136 3 21 cbr 1014 ------- 0 20.0 0.19 0 19
c 0.500136 20 21 cbr 1014 ------- 0 18.0 0.17 0 17
c 0.500268 4 21 cbr 1014 ------- 0 17.0 0.16 0 16
c 0.500268 17 21 cbr 1014 ------- 0 4.0 0.3 0 3
c 0.500648 16 21 cbr 1014 ------- 0 19.0 0.18 0 18
c 0.500648 14 21 cbr 1014 ------- 0 19.0 0.18 0 18
c 0.500648 11 21 cbr 1014 ------- 0 19.0 0.18 0 18
c 0.500648 10 21 cbr 1014 ------- 0 19.0 0.18 0 18
c 0.500648 9 21 cbr 1014 ------- 0 19.0 0.18 0 18
c 0.500648 6 21 cbr 1014 ------- 0 19.0 0.18 0 18
c 0.500648 5 21 cbr 1014 ------- 0 19.0 0.18 0 18
c 0.500648 2 21 cbr 1014 ------- 0 19.0 0.18 0 18
c 0.500648 1 21 cbr 1014 ------- 0 19.0 0.18 0 18
c 0.500648 19 21 cbr 1014 ------- 0 16.0 0.15 0 15
c 0.50078 20 21 cbr 1014 ------- 0 14.0 0.13 0 13
c 0.50078 18 21 cbr 1014 ------- 0 14.0 0.13 0 13
c 0.50078 15 21 cbr 1014 ------- 0 14.0 0.13 0 13
c 0.50078 12 21 cbr 1014 ------- 0 14.0 0.13 0 13
c 0.50078 10 21 cbr 1014 ------- 0 14.0 0.13 0 13
c 0.50078 6 21 cbr 1014 ------- 0 14.0 0.13 0 13
c 0.50078 5 21 cbr 1014 ------- 0 14.0 0.13 0 13
c 0.50078 1 21 cbr 1014 ------- 0 14.0 0.13 0 13
c 0.50078 14 21 cbr 1014 ------- 0 10.0 0.9 0 9
c 0.501292 13 21 cbr 1014 ------- 0 11.0 0.10 0 10
c 0.501292 8 21 cbr 1014 ------- 0 11.0 0.10 0 10
c 0.501292 7 21 cbr 1014 ------- 0 11.0 0.10 0 10
c 0.501292 11 21 cbr 1014 ------- 0 13.0 0.12 0 12
c 0.501424 4 21 cbr 1014 ------- 0 18.0 0.17 0 17
c 0.501424 18 21 cbr 1014 ------- 0 4.0 0.3 0 3
c 0.501804 19 21 cbr 1014 ------- 0 3.0 0.2 0 2
c 0.501804 16 21 cbr 1014 ------- 0 3.0 0.2 0 2
c 0.501804 9 21 cbr 1014 ------- 0 3.0 0.2 0 2
c 0.501804 2 21 cbr 1014 ------- 0 3.0 0.2 0 2
c 0.501804 3 21 cbr 1014 ------- 0 16.0 0.15 0 15
c 0.501936 12 21 cbr 1014 ------- 0 14.0 0.13 0 13
c 0.501936 10 21 cbr 1014 ------- 0 14.0 0.13 0 13
c 0.501936 14 21 cbr 1014 ------- 0 12.0 0.11 0 11
c 0.502068 14 21 cbr 1014 ------- 0 12.0 0.11 0 11
c 0.502068 12 21 cbr 1014 ------- 0 14.0 0.13 0 13
r 0.51056 21 0 cbr 1000 ------- 0 9.0 0.8 0 8
c 0.51066 19 21 cbr 1014 ------- 0 20.0 0.19 0 19
c 0.51066 18 21 cbr 1014 ------- 0 20.0 0.19 0 19
c 0.51066 17 21 cbr 1014 ------- 0 20.0 0.19 0 19
c 0.51066 16 21 cbr 1014 ------- 0 20.0 0.19 0 19
c 0.51066 15 21 cbr 1014 ------- 0 20.0 0.19 0 19
c 0.51066 13 21 cbr 1014 ------- 0 20.0 0.19 0 19
c 0.51066 12 21 cbr 1014 ------- 0 20.0 0.19 0 19
c 0.51066 11 21 cbr 1014 ------- 0 20.0 0.19 0 19
c 0.51066 10 21 cbr 1014 ------- 0 20.0 0.19 0 19
c 0.51066 8 21 cbr 1014 ------- 0 20.0 0.19 0 19
c 0.51066 7 21 cbr 1014 ------- 0 20.0 0.19 0 19
c 0.51066 6 21 cbr 1014 ------- 0 20.0 0.19 0 19
c 0.51066 5 21 cbr 1014 ------- 0 20.0 0.19 0 19
c 0.51066 4 21 cbr 1014 ------- 0 20.0 0.19 0 19
c 0.51066 3 21 cbr 1014 ------- 0 20.0 0.19 0 19
c 0.51066 2 21 cbr 1014 ------- 0 20.0 0.19 0 19
c 0.51066 1 21 cbr 1014 ------- 0 20.0 0.19 0 19
c 0.51066 20 21 cbr 1014 ------- 0 19.0 0.18 0 18
c 0.510792 20 21 cbr 1014 ------- 0 16.0 0.15 0 15
c 0.510792 16 21 cbr 1014 ------- 0 20.0 0.19 0 19
r 0.519416 21 0 cbr 1000 ------- 0 11.0 0.10 0 10
c 0.519516 19 21 cbr 1014 ------- 0 20.0 0.19 0 19
c 0.519516 18 21 cbr 1014 ------- 0 20.0 0.19 0 19
c 0.519516 17 21 cbr 1014 ------- 0 20.0 0.19 0 19
c 0.519516 16 21 cbr 1014 ------- 0 20.0 0.19 0 19
c 0.519516 15 21 cbr 1014 ------- 0 20.0 0.19 0 19
c 0.519516 14 21 cbr 1014 ------- 0 20.0 0.19 0 19
c 0.519516 13 21 cbr 1014 ------- 0 20.0 0.19 0 19
c 0.519516 10 21 cbr 1014 ------- 0 20.0 0.19 0 19
c 0.519516 8 21 cbr 1014 ------- 0 20.0 0.19 0 19
c 0.519516 7 21 cbr 1014 ------- 0 20.0 0.19 0 19
c 0.519516 6 21 cbr 1014 ------- 0 20.0 0.19 0 19
c 0.519516 5 21 cbr 1014 ------- 0 20.0 0.19 0 19
c 0.519516 4 21 cbr 1014 ------- 0 20.0 0.19 0 19
c 0.519516 3 21 cbr 1014 ------- 0 20.0 0.19 0 19
c 0.519516 2 21 cbr 1014 ------- 0 20.0 0.19 0 19
c 0.519516 1 21 cbr 1014 ------- 0 20.0 0.19 0 19
c 0.519516 20 21 cbr 1014 ------- 0 19.0 0.18 0 18
r 0.52776 21 0 cbr 1000 ------- 0 5.0 0.4 0 4
c 0.52786 12 21 cbr 1014 ------- 0 19.0 0.18 0 18
c 0.52786 7 21 cbr 1014 ------- 0 19.0 0.18 0 18
c 0.52786 1 21 cbr 1014 ------- 0 19.0 0.18 0 18
c 0.52786 19 21 cbr 1014 ------- 0 12.0 0.11 0 11
r 0.536464 21 0 cbr 1000 ------- 0 15.0 0.14 0 14
c 0.536564 17 21 cbr 1014 ------- 0 19.0 0.18 0 18
c 0.536564 13 21 cbr 1014 ------- 0 19.0 0.18 0 18
c 0.536564 8 21 cbr 1014 ------- 0 19.0 0.18 0 18
c 0.536564 6 21 cbr 1014 ------- 0 19.0 0.18 0 18
c 0.536564 4 21 cbr 1014 ------- 0 19.0 0.18 0 18
c 0.536564 3 21 cbr 1014 ------- 0 19.0 0.18 0 18
c 0.536564 2 21 cbr 1014 ------- 0 19.0 0.18 0 18
c 0.536564 1 21 cbr 1014 ------- 0 19.0 0.18 0 18
c 0.536564 19 21 cbr 1014 ------- 0 17.0 0.16 0 16
r 0.549928 21 0 cbr 1000 ------- 0 2.0 0.1 0 1
c 0.550028 18 21 cbr 1014 ------- 0 20.0 0.19 0 19
c 0.550028 13 21 cbr 1014 ------- 0 20.0 0.19 0 19
c 0.550028 12 21 cbr 1014 ------- 0 20.0 0.19 0 19
c 0.550028 10 21 cbr 1014 ------- 0 20.0 0.19 0 19
c 0.550028 7 21 cbr 1014 ------- 0 20.0 0.19 0 19
c 0.550028 4 21 cbr 1014 ------- 0 20.0 0.19 0 19
c 0.550028 20 21 cbr 1014 ------- 0 18.0 0.17 0 17
r 0.55848 21 0 cbr 1000 ------- 0 14.0 0.13 0 13
c 0.55858 16 21 cbr 1014 ------- 0 17.0 0.16 0 16
c 0.55858 7 21 cbr 1014 ------- 0 17.0 0.16 0 16
c 0.55858 17 21 cbr 1014 ------- 0 16.0 0.15 0 15
r 0.569896 21 0 cbr 1000 ------- 0 3.0 0.2 0 2
c 0.569996 8 21 cbr 1014 ------- 0 10.0 0.9 0 9
c 0.569996 6 21 cbr 1014 ------- 0 10.0 0.9 0 9
c 0.569996 10 21 cbr 1014 ------- 0 8.0 0.7 0 7
r 0.579776 21 0 cbr 1000 ------- 0 13.0 0.12 0 12
h 0.58 1 21 cbr 1000 ------- 0 1.0 0.0 1 20
h 0.58 2 21 cbr 1000 ------- 0 2.0 0.1 1 21
h 0.58 3 21 cbr 1000 ------- 0 3.0 0.2 1 22
h 0.58 4 21 cbr 1000 ------- 0 4.0 0.3 1 23
h 0.58 5 21 cbr 1000 ------- 0 5.0 0.4 1 24
h 0.58 6 21 cbr 1000 ------- 0 6.0 0.5 1 25
h 0.58 7 21 cbr 1000 ------- 0 7.0 0.6 1 26
h 0.58 8 21 cbr 1000 ------- 0 8.0 0.7 1 27
h 0.58 9 21 cbr 1000 ------- 0 9.0 0.8 1 28
h 0.58 10 21 cbr 1000 ------- 0 10.0 0.9 1 29
h 0.58 11 21 cbr 1000 ------- 0 11.0 0.10 1 30
h 0.58 12 21 cbr 1000 ------- 0 12.0 0.11 1 31
h 0.58 13 21 cbr 1000 ------- 0 13.0 0.12 1 32
h 0.58 14 21 cbr 1000 ------- 0 14.0 0.13 1 33
h 0.58 15 21 cbr 1000 ------- 0 15.0 0.14 1 34
h 0.58 16 21 cbr 1000 ------- 0 16.0 0.15 1 35
h 0.58 17 21 cbr 1000 ------- 0 17.0 0.16 1 36
h 0.58 18 21 cbr 1000 ------- 0 18.0 0.17 1 37
h 0.58 19 21 cbr 1000 ------- 0 19.0 0.18 1 38
h 0.58 20 21 cbr 1000 ------- 0 20.0 0.19 1 39
+ 0.58 1 21 cbr 1000 ------- 0 1.0 0.0 1 20
+ 0.58 2 21 cbr 1000 ------- 0 2.0 0.1 1 21
- 0.58 2 21 cbr 1000 ------- 0 2.0 0.1 1 21
+ 0.58 3 21 cbr 1000 ------- 0 3.0 0.2 1 22
- 0.58 3 21 cbr 1000 ------- 0 3.0 0.2 1 22
+ 0.58 4 21 cbr 1000 ------- 0 4.0 0.3 1 23
+ 0.58 5 21 cbr 1000 ------- 0 5.0 0.4 1 24
- 0.58 5 21 cbr 1000 ------- 0 5.0 0.4 1 24
+ 0.58 6 21 cbr 1000 ------- 0 6.0 0.5 1 25
+ 0.58 7 21 cbr 1000 ------- 0 7.0 0.6 1 26
+ 0.58 8 21 cbr 1000 ------- 0 8.0 0.7 1 27
+ 0.58 9 21 cbr 1000 ------- 0 9.0 0.8 1 28
- 0.58 9 21 cbr 1000 ------- 0 9.0 0.8 1 28
+ 0.58 10 21 cbr 1000 ------- 0 10.0 0.9 1 29
+ 0.58 11 21 cbr 1000 ------- 0 11.0 0.10 1 30
- 0.58 11 21 cbr 1000 ------- 0 11.0 0.10 1 30
+ 0.58 12 21 cbr 1000 ------- 0 12.0 0.11 1 31
+ 0.58 13 21 cbr 1000 ------- 0 13.0 0.12 1 32
- 0.58 13 21 cbr 1000 ------- 0 13.0 0.12 1 32
+ 0.58 14 21 cbr 1000 ------- 0 14.0 0.13 1 33
- 0.58 14 21 cbr 1000 ------- 0 14.0 0.13 1 33
+ 0.58 15 21 cbr 1000 ------- 0 15.0 0.14 1 34
- 0.58 15 21 cbr 1000 ------- 0 15.0 0.14 1 34
+ 0.58 16 21 cbr 1000 ------- 0 16.0 0.15 1 35
+ 0.58 17 21 cbr 1000 ------- 0 17.0 0.16 1 36
+ 0.58 18 21 cbr 1000 ------- 0 18.0 0.17 1 37
+ 0.58 19 21 cbr 1000 ------- 0 19.0 0.18 1 38
+ 0.58 20 21 cbr 1000 ------- 0 20.0 0.19 1 39
r 0.587988 21 0 cbr 1000 ------- 0 1.0 0.0 0 0
- 0.58808 1 21 cbr 1000 ------- 0 1.0 0.0 1 20
c 0.588084 18 21 cbr 1014 ------- 0 1.0 0.0 1 20
c 0.588084 15 21 cbr 1014 ------- 0 1.0 0.0 1 20
c 0.588084 14 21 cbr 1014 ------- 0 1.0 0.0 1 20
c 0.588084 13 21 cbr 1014 ------- 0 1.0 0.0 1 20
c 0.588084 11 21 cbr 1014 ------- 0 1.0 0.0 1 20
c 0.588084 9 21 cbr 1014 ------- 0 1.0 0.0 1 20
c 0.588084 5 21 cbr 1014 ------- 0 1.0 0.0 1 20
c 0.588084 3 21 cbr 1014 ------- 0 1.0 0.0 1 20
c 0.588084 2 21 cbr 1014 ------- 0 1.0 0.0 1 20
c 0.588088 1 21 cbr 1014 ------- 0 18.0 0.17 0 17
c 0.588216 2 21 cbr 1014 ------- 0 14.0 0.13 1 33
c 0.588216 1 21 cbr 1014 ------- 0 14.0 0.13 1 33
c 0.588216 14 21 cbr 1014 ------- 0 2.0 0.1 1 21
c 0.588728 13 21 cbr 1014 ------- 0 15.0 0.14 1 34
c 0.588728 11 21 cbr 1014 ------- 0 15.0 0.14 1 34
c 0.588728 9 21 cbr 1014 ------- 0 15.0 0.14 1 34
c 0.588728 5 21 cbr 1014 ------- 0 15.0 0.14 1 34
c 0.588728 3 21 cbr 1014 ------- 0 15.0 0.14 1 34
c 0.588728 15 21 cbr 1014 ------- 0 13.0 0.12 1 32
c 0.58886 2 21 cbr 1014 ------- 0 3.0 0.2 1 22
c 0.58886 1 21 cbr 1014 ------- 0 3.0 0.2 1 22
c 0.58886 3 21 cbr 1014 ------- 0 2.0 0.1 1 21
c 0.588992 3 21 cbr 1014 ------- 0 19.0 0.18 0 18
c 0.588992 19 21 cbr 1014 ------- 0 3.0 0.2 1 22
c 0.589372 15 21 cbr 1014 ------- 0 13.0 0.12 1 32
c 0.589372 14 21 cbr 1014 ------- 0 13.0 0.12 1 32
c 0.589372 9 21 cbr 1014 ------- 0 13.0 0.12 1 32
c 0.589372 13 21 cbr 1014 ------- 0 9.0 0.8 1 28
r 0.597616 21 0 cbr 1000 ------- 0 1.0 0.0 1 20
c 0.597716 16 21 cbr 1014 ------- 0 20.0 0.19 0 19
c 0.597716 15 21 cbr 1014 ------- 0 20.0 0.19 0 19
c 0.597716 14 21 cbr 1014 ------- 0 20.0 0.19 0 19
c 0.597716 13 21 cbr 1014 ------- 0 20.0 0.19 0 19
c 0.597716 11 21 cbr 1014 ------- 0 20.0 0.19 0 19
c 0.597716 9 21 cbr 1014 ------- 0 20.0 0.19 0 19
c 0.597716 5 21 cbr 1014 ------- 0 20.0 0.19 0 19
c 0.597716 3 21 cbr 1014 ------- 0 20.0 0.19 0 19
c 0.597716 2 21 cbr 1014 ------- 0 20.0 0.19 0 19
c 0.597716 20 21 cbr 1014 ------- 0 16.0 0.15 0 15
r 0.60596 21 0 cbr 1000 ------- 0 9.0 0.8 1 28
c 0.60606 15 21 cbr 1014 ------- 0 17.0 0.16 0 16
c 0.60606 14 21 cbr 1014 ------- 0 17.0 0.16 0 16
c 0.60606 13 21 cbr 1014 ------- 0 17.0 0.16 0 16
c 0.60606 11 21 cbr 1014 ------- 0 17.0 0.16 0 16
c 0.60606 7 21 cbr 1014 ------- 0 17.0 0.16 0 16
c 0.60606 6 21 cbr 1014 ------- 0 17.0 0.16 0 16
c 0.60606 5 21 cbr 1014 ------- 0 17.0 0.16 0 16
c 0.60606 2 21 cbr 1014 ------- 0 17.0 0.16 0 16
c 0.60606 17 21 cbr 1014 ------- 0 15.0 0.14 1 34
r 0.615688 21 0 cbr 1000 ------- 0 3.0 0.2 1 22
c 0.615788 15 21 cbr 1014 ------- 0 18.0 0.17 0 17
c 0.615788 13 21 cbr 1014 ------- 0 18.0 0.17 0 17
c 0.615788 12 21 cbr 1014 ------- 0 18.0 0.17 0 17
c 0.615788 11 21 cbr 1014 ------- 0 18.0 0.17 0 17
c 0.615788 5 21 cbr 1014 ------- 0 18.0 0.17 0 17
c 0.615788 2 21 cbr 1014 ------- 0 18.0 0.17 0 17
c 0.615788 18 21 cbr 1014 ------- 0 15.0 0.14 1 34
r 0.627392 21 0 cbr 1000 ------- 0 8.0 0.7 0 7
- 0.627484 8 21 cbr 1000 ------- 0 8.0 0.7 1 27
c 0.627488 20 21 cbr 1014 ------- 0 8.0 0.7 1 27
c 0.627488 15 21 cbr 1014 ------- 0 8.0 0.7 1 27
c 0.627488 14 21 cbr 1014 ------- 0 8.0 0.7 1 27
c 0.627488 11 21 cbr 1014 ------- 0 8.0 0.7 1 27
c 0.627488 2 21 cbr 1014 ------- 0 8.0 0.7 1 27
c 0.627492 8 21 cbr 1014 ------- 0 20.0 0.19 0 19
r 0.635736 21 0 cbr 1000 ------- 0 8.0 0.7 1 27
c 0.635836 11 21 cbr 1014 ------- 0 13.0 0.12 1 32
c 0.635836 10 21 cbr 1014 ------- 0 13.0 0.12 1 32
c 0.635836 5 21 cbr 1014 ------- 0 13.0 0.12 1 32
c 0.635836 13 21 cbr 1014 ------- 0 11.0 0.10 1 30
r 0.650736 21 0 cbr 1000 ------- 0 13.0 0.12 1 32
c 0.650836 5 21 cbr 1014 ------- 0 15.0 0.14 1 34
c 0.650836 15 21 cbr 1014 ------- 0 5.0 0.4 1 24
h 0.66 1 21 cbr 1000 ------- 0 1.0 0.0 2 40
h 0.66 2 21 cbr 1000 ------- 0 2.0 0.1 2 41
h 0.66 3 21 cbr 1000 ------- 0 3.0 0.2 2 42
h 0.66 4 21 cbr 1000 ------- 0 4.0 0.3 2 43
h 0.66 5 21 cbr 1000 ------- 0 5.0 0.4 2 44
h 0.66 6 21 cbr 1000 ------- 0 6.0 0.5 2 45
h 0.66 7 21 cbr 1000 ------- 0 7.0 0.6 2 46
h 0.66 8 21 cbr 1000 ------- 0 8.0 0.7 2 47
h 0.66 9 21 cbr 1000 ------- 0 9.0 0.8 2 48
h 0.66 10 21 cbr 1000 ------- 0 10.0 0.9 2 49
h 0.66 11 21 cbr 1000 ------- 0 11.0 0.10 2 50
h 0.66 12 21 cbr 1000 ------- 0 12.0 0.11 2 51
h 0.66 13 21 cbr 1000 ------- 0 13.0 0.12 2 52
h 0.66 14 21 cbr 1000 ------- 0 14.0 0.13 2 53
h 0.66 15 21 cbr 1000 ------- 0 15.0 0.14 2 54
h 0.66 16 21 cbr 1000 ------- 0 16.0 0.15 2 55
h 0.66 17 21 cbr 1000 ------- 0 17.0 0.16 2 56
h 0.66 18 21 cbr 1000 ------- 0 18.0 0.17 2 57
h 0.66 19 21 cbr 1000 ------- 0 19.0 0.18 2 58
h 0.66 20 21 cbr 1000 ------- 0 20.0 0.19 2 59
+ 0.66 1 21 cbr 1000 ------- 0 1.0 0.0 2 40
- 0.66 1 21 cbr 1000 ------- 0 1.0 0.0 2 40
+ 0.66 2 21 cbr 1000 ------- 0 2.0 0.1 2 41
+ 0.66 3 21 cbr 1000 ------- 0 3.0 0.2 2 42
- 0.66 3 21 cbr 1000 ------- 0 3.0 0.2 2 42
+ 0.66 4 21 cbr 1000 ------- 0 4.0 0.3 2 43
+ 0.66 5 21 cbr 1000 ------- 0 5.0 0.4 2 44
+ 0.66 6 21 cbr 1000 ------- 0 6.0 0.5 2 45
+ 0.66 7 21 cbr 1000 ------- 0 7.0 0.6 2 46
+ 0.66 8 21 cbr 1000 ------- 0 8.0 0.7 2 47
- 0.66 8 21 cbr 1000 ------- 0 8.0 0.7 2 47
+ 0.66 9 21 cbr 1000 ------- 0 9.0 0.8 2 48
- 0.66 9 21 cbr 1000 ------- 0 9.0 0.8 2 48
+ 0.66 10 21 cbr 1000 ------- 0 10.0 0.9 2 49
+ 0.66 11 21 cbr 1000 ------- 0 11.0 0.10 2 50
+ 0.66 12 21 cbr 1000 ------- 0 12.0 0.11 2 51
+ 0.66 13 21 cbr 1000 ------- 0 13.0 0.12 2 52
- 0.66 13 21 cbr 1000 ------- 0 13.0 0.12 2 52
+ 0.66 14 21 cbr 1000 ------- 0 14.0 0.13 2 53
+ 0.66 15 21 cbr 1000 ------- 0 15.0 0.14 2 54
+ 0.66 16 21 cbr 1000 ------- 0 16.0 0.15 2 55
+ 0.66 17 21 cbr 1000 ------- 0 17.0 0.16 2 56
+ 0.66 18 21 cbr 1000 ------- 0 18.0 0.17 2 57
+ 0.66 19 21 cbr 1000 ------- 0 19.0 0.18 2 58
+ 0.66 20 21 cbr 1000 ------- 0 20.0 0.19 2 59
r 0.66016 21 0 cbr 1000 ------- 0 4.0 0.3 0 3
- 0.660252 4 21 cbr 1000 ------- 0 4.0 0.3 1 23
c 0.660256 17 21 cbr 1014 ------- 0 4.0 0.3 1 23
c 0.660256 15 21 cbr 1014 ------- 0 4.0 0.3 1 23
c 0.660256 14 21 cbr 1014 ------- 0 4.0 0.3 1 23
c 0.660256 13 21 cbr 1014 ------- 0 4.0 0.3 1 23
c 0.660256 9 21 cbr 1014 ------- 0 4.0 0.3 1 23
c 0.660256 8 21 cbr 1014 ------- 0 4.0 0.3 1 23
c 0.660256 3 21 cbr 1014 ------- 0 4.0 0.3 1 23
c 0.660256 1 21 cbr 1014 ------- 0 4.0 0.3 1 23
c 0.66026 4 21 cbr 1014 ------- 0 17.0 0.16 0 16
c 0.660388 8 21 cbr 1014 ------- 0 9.0 0.8 2 48
c 0.660388 4 21 cbr 1014 ------- 0 9.0 0.8 2 48
c 0.660388 1 21 cbr 1014 ------- 0 9.0 0.8 2 48
c 0.660388 9 21 cbr 1014 ------- 0 8.0 0.7 2 47
c 0.6609 3 21 cbr 1014 ------- 0 13.0 0.12 2 52
c 0.6609 13 21 cbr 1014 ------- 0 3.0 0.2 2 42
c 0.661032 13 21 cbr 1014 ------- 0 3.0 0.2 2 42
c 0.661032 9 21 cbr 1014 ------- 0 3.0 0.2 2 42
c 0.661032 8 21 cbr 1014 ------- 0 3.0 0.2 2 42
c 0.661032 1 21 cbr 1014 ------- 0 3.0 0.2 2 42
c 0.661032 3 21 cbr 1014 ------- 0 13.0 0.12 2 52
r 0.669276 21 0 cbr 1000 ------- 0 3.0 0.2 2 42
c 0.669376 11 21 cbr 1014 ------- 0 13.0 0.12 2 52
c 0.669376 9 21 cbr 1014 ------- 0 13.0 0.12 2 52
c 0.669376 8 21 cbr 1014 ------- 0 13.0 0.12 2 52
c 0.669376 4 21 cbr 1014 ------- 0 13.0 0.12 2 52
c 0.669376 2 21 cbr 1014 ------- 0 13.0 0.12 2 52
c 0.669376 1 21 cbr 1014 ------- 0 13.0 0.12 2 52
c 0.669376 13 21 cbr 1014 ------- 0 11.0 0.10 1 30
r 0.677792 21 0 cbr 1000 ------- 0 6.0 0.5 0 5
- 0.677884 6 21 cbr 1000 ------- 0 6.0 0.5 1 25
c 0.677888 13 21 cbr 1014 ------- 0 6.0 0.5 1 25
c 0.677888 9 21 cbr 1014 ------- 0 6.0 0.5 1 25
c 0.677888 8 21 cbr 1014 ------- 0 6.0 0.5 1 25
c 0.677888 4 21 cbr 1014 ------- 0 6.0 0.5 1 25
c 0.677888 2 21 cbr 1014 ------- 0 6.0 0.5 1 25
c 0.677888 1 21 cbr 1014 ------- 0 6.0 0.5 1 25
c 0.677892 6 21 cbr 1014 ------- 0 13.0 0.12 2 52
r 0.686136 21 0 cbr 1000 ------- 0 6.0 0.5 1 25
- 0.686228 6 21 cbr 1000 ------- 0 6.0 0.5 2 45
c 0.686232 14 21 cbr 1014 ------- 0 6.0 0.5 2 45
c 0.686232 13 21 cbr 1014 ------- 0 6.0 0.5 2 45
c 0.686232 5 21 cbr 1014 ------- 0 6.0 0.5 2 45
c 0.686232 4 21 cbr 1014 ------- 0 6.0 0.5 2 45
c 0.686232 2 21 cbr 1014 ------- 0 6.0 0.5 2 45
c 0.686232 1 21 cbr 1014 ------- 0 6.0 0.5 2 45
c 0.686236 6 21 cbr 1014 ------- 0 14.0 0.13 1 33
r 0.69448 21 0 cbr 1000 ------- 0 6.0 0.5 2 45
c 0.69458 8 21 cbr 1014 ------- 0 9.0 0.8 2 48
c 0.69458 9 21 cbr 1014 ------- 0 8.0 0.7 2 47
r 0.703692 21 0 cbr 1000 ------- 0 13.0 0.12 2 52
c 0.703792 16 21 cbr 1014 ------- 0 19.0 0.18 0 18
c 0.703792 4 21 cbr 1014 ------- 0 19.0 0.18 0 18
c 0.703792 19 21 cbr 1014 ------- 0 16.0 0.15 0 15
r 0.717516 21 0 cbr 1000 ------- 0 1.0 0.0 2 40
r 0.725728 21 0 cbr 1000 ------- 0 9.0 0.8 2 48
c 0.725828 4 21 cbr 1014 ------- 0 8.0 0.7 2 47
c 0.725828 8 21 cbr 1014 ------- 0 4.0 0.3 1 23
r 0.736084 21 0 cbr 1000 ------- 0 15.0 0.14 1 34
- 0.736176 15 21 cbr 1000 ------- 0 15.0 0.14 2 54
h 0.74 1 21 cbr 1000 ------- 0 1.0 0.0 3 60
h 0.74 2 21 cbr 1000 ------- 0 2.0 0.1 3 61
h 0.74 3 21 cbr 1000 ------- 0 3.0 0.2 3 62
h 0.74 4 21 cbr 1000 ------- 0 4.0 0.3 3 63
h 0.74 5 21 cbr 1000 ------- 0 5.0 0.4 3 64
h 0.74 6 21 cbr 1000 ------- 0 6.0 0.5 3 65
h 0.74 7 21 cbr 1000 ------- 0 7.0 0.6 3 66
h 0.74 8 21 cbr 1000 ------- 0 8.0 0.7 3 67
h 0.74 9 21 cbr 1000 ------- 0 9.0 0.8 3 68
h 0.74 10 21 cbr 1000 ------- 0 10.0 0.9 3 69
h 0.74 11 21 cbr 1000 ------- 0 11.0 0.10 3 70
h 0.74 12 21 cbr 1000 ------- 0 12.0 0.11 3 71
h 0.74 13 21 cbr 1000 ------- 0 13.0 0.12 3 72
h 0.74 14 21 cbr 1000 ------- 0 14.0 0.13 3 73
h 0.74 15 21 cbr 1000 ------- 0 15.0 0.14 3 74
h 0.74 16 21 cbr 1000 ------- 0 16.0 0.15 3 75
h 0.74 17 21 cbr 1000 ------- 0 17.0 0.16 3 76
h 0.74 18 21 cbr 1000 ------- 0 18.0 0.17 3 77
h 0.74 19 21 cbr 1000 ------- 0 19.0 0.18 3 78
h 0.74 20 21 cbr 1000 ------- 0 20.0 0.19 3 79
+ 0.74 1 21 cbr 1000 ------- 0 1.0 0.0 3 60
- 0.74 1 21 cbr 1000 ------- 0 1.0 0.0 3 60
+ 0.74 2 21 cbr 1000 ------- 0 2.0 0.1 3 61
+ 0.74 3 21 cbr 1000 ------- 0 3.0 0.2 3 62
- 0.74 3 21 cbr 1000 ------- 0 3.0 0.2 3 62
+ 0.74 4 21 cbr 1000 ------- 0 4.0 0.3 3 63
+ 0.74 5 21 cbr 1000 ------- 0 5.0 0.4 3 64
+ 0.74 6 21 cbr 1000 ------- 0 6.0 0.5 3 65
- 0.74 6 21 cbr 1000 ------- 0 6.0 0.5 3 65
+ 0.74 7 21 cbr 1000 ------- 0 7.0 0.6 3 66
+ 0.74 8 21 cbr 1000 ------- 0 8.0 0.7 3 67
+ 0.74 9 21 cbr 1000 ------- 0 9.0 0.8 3 68
- 0.74 9 21 cbr 1000 ------- 0 9.0 0.8 3 68
+ 0.74 10 21 cbr 1000 ------- 0 10.0 0.9 3 69
+ 0.74 11 21 cbr 1000 ------- 0 11.0 0.10 3 70
+ 0.74 12 21 cbr 1000 ------- 0 12.0 0.11 3 71
+ 0.74 13 21 cbr 1000 ------- 0 13.0 0.12 3 72
- 0.74 13 21 cbr 1000 ------- 0 13.0 0.12 3 72
+ 0.74 14 21 cbr 1000 ------- 0 14.0 0.13 3 73
+ 0.74 15 21 cbr 1000 ------- 0 15.0 0.14 3 74
+ 0.74 16 21 cbr 1000 ------- 0 16.0 0.15 3 75
+ 0.74 17 21 cbr 1000 ------- 0 17.0 0.16 3 76
+ 0.74 18 21 cbr 1000 ------- 0 18.0 0.17 3 77
+ 0.74 19 21 cbr 1000 ------- 0 19.0 0.18 3 78
+ 0.74 20 21 cbr 1000 ------- 0 20.0 0.19 3 79
r 0.744292 21 0 cbr 1000 ------- 0 15.0 0.14 2 54
- 0.744384 15 21 cbr 1000 ------- 0 15.0 0.14 3 74
c 0.744388 13 21 cbr 1014 ------- 0 15.0 0.14 3 74
c 0.744388 9 21 cbr 1014 ------- 0 15.0 0.14 3 74
c 0.744388 7 21 cbr 1014 ------- 0 15.0 0.14 3 74
c 0.744388 6 21 cbr 1014 ------- 0 15.0 0.14 3 74
c 0.744388 3 21 cbr 1014 ------- 0 15.0 0.14 3 74
c 0.744388 1 21 cbr 1014 ------- 0 15.0 0.14 3 74
c 0.744392 15 21 cbr 1014 ------- 0 13.0 0.12 3 72
c 0.74452 3 21 cbr 1014 ------- 0 9.0 0.8 3 68
c 0.74452 9 21 cbr 1014 ------- 0 3.0 0.2 3 62
c 0.744652 9 21 cbr 1014 ------- 0 3.0 0.2 3 62
c 0.744652 3 21 cbr 1014 ------- 0 9.0 0.8 3 68
r 0.752896 21 0 cbr 1000 ------- 0 3.0 0.2 3 62
c 0.752996 13 21 cbr 1014 ------- 0 15.0 0.14 3 74
c 0.752996 9 21 cbr 1014 ------- 0 15.0 0.14 3 74
c 0.752996 8 21 cbr 1014 ------- 0 15.0 0.14 3 74
c 0.752996 6 21 cbr 1014 ------- 0 15.0 0.14 3 74
c 0.752996 1 21 cbr 1014 ------- 0 15.0 0.14 3 74
c 0.752996 15 21 cbr 1014 ------- 0 13.0 0.12 3 72
c 0.75364 15 21 cbr 1014 ------- 0 13.0 0.12 3 72
c 0.75364 1 21 cbr 1014 ------- 0 13.0 0.12 3 72
c 0.75364 13 21 cbr 1014 ------- 0 1.0 0.0 3 60
r 0.761884 21 0 cbr 1000 ------- 0 15.0 0.14 3 74
c 0.761984 11 21 cbr 1014 ------- 0 13.0 0.12 3 72
c 0.761984 9 21 cbr 1014 ------- 0 13.0 0.12 3 72
c 0.761984 6 21 cbr 1014 ------- 0 13.0 0.12 3 72
c 0.761984 1 21 cbr 1014 ------- 0 13.0 0.12 3 72
c 0.761984 13 21 cbr 1014 ------- 0 11.0 0.10 1 30
r 0.77074 21 0 cbr 1000 ------- 0 1.0 0.0 3 60
c 0.77084 9 21 cbr 1014 ------- 0 13.0 0.12 3 72
c 0.77084 6 21 cbr 1014 ------- 0 13.0 0.12 3 72
c 0.77084 5 21 cbr 1014 ------- 0 13.0 0.12 3 72
c 0.77084 4 21 cbr 1014 ------- 0 13.0 0.12 3 72
c 0.77084 13 21 cbr 1014 ------- 0 9.0 0.8 3 68
c 0.77558 13 21 cbr 1014 ------- 0 6.0 0.5 3 65
c 0.77558 6 21 cbr 1014 ------- 0 13.0 0.12 3 72
r 0.787872 21 0 cbr 1000 ------- 0 12.0 0.11 0 11
- 0.787964 12 21 cbr 1000 ------- 0 12.0 0.11 1 31
c 0.787968 6 21 cbr 1014 ------- 0 12.0 0.11 1 31
c 0.787972 12 21 cbr 1014 ------- 0 6.0 0.5 3 65
r 0.796216 21 0 cbr 1000 ------- 0 12.0 0.11 1 31
- 0.796308 12 21 cbr 1000 ------- 0 12.0 0.11 2 51
c 0.796312 19 21 cbr 1014 ------- 0 12.0 0.11 2 51
c 0.796312 14 21 cbr 1014 ------- 0 12.0 0.11 2 51
c 0.796312 13 21 cbr 1014 ------- 0 12.0 0.11 2 51
c 0.796312 9 21 cbr 1014 ------- 0 12.0 0.11 2 51
c 0.796312 6 21 cbr 1014 ------- 0 12.0 0.11 2 51
c 0.796316 12 21 cbr 1014 ------- 0 19.0 0.18 0 18
r 0.805072 21 0 cbr 1000 ------- 0 12.0 0.11 2 51
- 0.805164 12 21 cbr 1000 ------- 0 12.0 0.11 3 71
r 0.81328 21 0 cbr 1000 ------- 0 12.0 0.11 3 71
c 0.81338 13 21 cbr 1014 ------- 0 18.0 0.17 0 17
c 0.81338 8 21 cbr 1014 ------- 0 18.0 0.17 0 17
c 0.81338 18 21 cbr 1014 ------- 0 13.0 0.12 3 72
h 0.82 1 21 cbr 1000 ------- 0 1.0 0.0 4 80
h 0.82 2 21 cbr 1000 ------- 0 2.0 0.1 4 81
h 0.82 3 21 cbr 1000 ------- 0 3.0 0.2 4 82
h 0.82 4 21 cbr 1000 ------- 0 4.0 0.3 4 83
h 0.82 5 21 cbr 1000 ------- 0 5.0 0.4 4 84
h 0.82 6 21 cbr 1000 ------- 0 6.0 0.5 4 85
h 0.82 7 21 cbr 1000 ------- 0 7.0 0.6 4 86
h 0.82 8 21 cbr 1000 ------- 0 8.0 0.7 4 87
h 0.82 9 21 cbr 1000 ------- 0 9.0 0.8 4 88
h 0.82 10 21 cbr 1000 ------- 0 10.0 0.9 4 89
h 0.82 11 21 cbr 1000 ------- 0 11.0 0.10 4 90
h 0.82 12 21 cbr 1000 ------- 0 12.0 0.11 4 91
h 0.82 13 21 cbr 1000 ------- 0 13.0 0.12 4 92
h 0.82 14 21 cbr 1000 ------- 0 14.0 0.13 4 93
h 0.82 15 21 cbr 1000 ------- 0 15.0 0.14 4 94
h 0.82 16 21 cbr 1000 ------- 0 16.0 0.15 4 95
h 0.82 17 21 cbr 1000 ------- 0 17.0 0.16 4 96
h 0.82 18 21 cbr 1000 ------- 0 18.0 0.17 4 97
h 0.82 19 21 cbr 1000 ------- 0 19.0 0.18 4 98
h 0.82 20 21 cbr 1000 ------- 0 20.0 0.19 4 99
+ 0.82 1 21 cbr 1000 ------- 0 1.0 0.0 4 80
- 0.82 1 21 cbr 1000 ------- 0 1.0 0.0 4 80
+ 0.82 2 21 cbr 1000 ------- 0 2.0 0.1 4 81
+ 0.82 3 21 cbr 1000 ------- 0 3.0 0.2 4 82
- 0.82 3 21 cbr 1000 ------- 0 3.0 0.2 4 82
+ 0.82 4 21 cbr 1000 ------- 0 4.0 0.3 4 83
+ 0.82 5 21 cbr 1000 ------- 0 5.0 0.4 4 84
+ 0.82 6 21 cbr 1000 ------- 0 6.0 0.5 4 85
+ 0.82 7 21 cbr 1000 ------- 0 7.0 0.6 4 86
+ 0.82 8 21 cbr 1000 ------- 0 8.0 0.7 4 87
+ 0.82 9 21 cbr 1000 ------- 0 9.0 0.8 4 88
+ 0.82 10 21 cbr 1000 ------- 0 10.0 0.9 4 89
+ 0.82 11 21 cbr 1000 ------- 0 11.0 0.10 4 90
+ 0.82 12 21 cbr 1000 ------- 0 12.0 0.11 4 91
- 0.82 12 21 cbr 1000 ------- 0 12.0 0.11 4 91
+ 0.82 13 21 cbr 1000 ------- 0 13.0 0.12 4 92
+ 0.82 14 21 cbr 1000 ------- 0 14.0 0.13 4 93
+ 0.82 15 21 cbr 1000 ------- 0 15.0 0.14 4 94
- 0.82 15 21 cbr 1000 ------- 0 15.0 0.14 4 94
+ 0.82 16 21 cbr 1000 ------- 0 16.0 0.15 4 95
+ 0.82 17 21 cbr 1000 ------- 0 17.0 0.16 4 96
+ 0.82 18 21 cbr 1000 ------- 0 18.0 0.17 4 97
+ 0.82 19 21 cbr 1000 ------- 0 19.0 0.18 4 98
+ 0.82 20 21 cbr 1000 ------- 0 20.0 0.19 4 99
r 0.824012 21 0 cbr 1000 ------- 0 9.0 0.8 3 68
- 0.824104 9 21 cbr 1000 ------- 0 9.0 0.8 4 88
c 0.824108 18 21 cbr 1014 ------- 0 9.0 0.8 4 88
c 0.824108 15 21 cbr 1014 ------- 0 9.0 0.8 4 88
c 0.824108 12 21 cbr 1014 ------- 0 9.0 0.8 4 88
c 0.824108 7 21 cbr 1014 ------- 0 9.0 0.8 4 88
c 0.824108 3 21 cbr 1014 ------- 0 9.0 0.8 4 88
c 0.824108 1 21 cbr 1014 ------- 0 9.0 0.8 4 88
c 0.824112 9 21 cbr 1014 ------- 0 18.0 0.17 0 17
c 0.82424 9 21 cbr 1014 ------- 0 15.0 0.14 4 94
c 0.82424 3 21 cbr 1014 ------- 0 15.0 0.14 4 94
c 0.82424 15 21 cbr 1014 ------- 0 3.0 0.2 4 82
c 0.824752 1 21 cbr 1014 ------- 0 12.0 0.11 4 91
c 0.824752 12 21 cbr 1014 ------- 0 1.0 0.0 4 80
c 0.824884 12 21 cbr 1014 ------- 0 15.0 0.14 4 94
c 0.824884 15 21 cbr 1014 ------- 0 12.0 0.11 4 91
c 0.825396 3 21 cbr 1014 ------- 0 9.0 0.8 4 88
c 0.825396 9 21 cbr 1014 ------- 0 3.0 0.2 4 82
r 0.83364 21 0 cbr 1000 ------- 0 12.0 0.11 4 91
c 0.83374 9 21 cbr 1014 ------- 0 15.0 0.14 4 94
c 0.83374 3 21 cbr 1014 ------- 0 15.0 0.14 4 94
c 0.83374 2 21 cbr 1014 ------- 0 15.0 0.14 4 94
c 0.83374 1 21 cbr 1014 ------- 0 15.0 0.14 4 94
c 0.83374 15 21 cbr 1014 ------- 0 9.0 0.8 4 88
r 0.842496 21 0 cbr 1000 ------- 0 9.0 0.8 4 88
c 0.842596 6 21 cbr 1014 ------- 0 15.0 0.14 4 94
c 0.842596 3 21 cbr 1014 ------- 0 15.0 0.14 4 94
c 0.842596 1 21 cbr 1014 ------- 0 15.0 0.14 4 94
c 0.842596 15 21 cbr 1014 ------- 0 6.0 0.5 3 65
r 0.852376 21 0 cbr 1000 ------- 0 1.0 0.0 4 80
r 0.860588 21 0 cbr 1000 ------- 0 15.0 0.14 4 94
c 0.860688 13 21 cbr 1014 ------- 0 16.0 0.15 0 15
c 0.860688 10 21 cbr 1014 ------- 0 16.0 0.15 0 15
c 0.860688 3 21 cbr 1014 ------- 0 16.0 0.15 0 15
c 0.860688 16 21 cbr 1014 ------- 0 13.0 0.12 3 72
r 0.874828 21 0 cbr 1000 ------- 0 4.0 0.3 1 23
- 0.87492 4 21 cbr 1000 ------- 0 4.0 0.3 2 43
c 0.874924 13 21 cbr 1014 ------- 0 4.0 0.3 2 43
c 0.874924 3 21 cbr 1014 ------- 0 4.0 0.3 2 43
c 0.874928 4 21 cbr 1014 ------- 0 13.0 0.12 3 72
r 0.883172 21 0 cbr 1000 ------- 0 4.0 0.3 2 43
- 0.883264 4 21 cbr 1000 ------- 0 4.0 0.3 3 63
c 0.883268 17 21 cbr 1014 ------- 0 4.0 0.3 3 63
c 0.883272 4 21 cbr 1014 ------- 0 17.0 0.16 0 16
r 0.892028 21 0 cbr 1000 ------- 0 4.0 0.3 3 63
- 0.89212 4 21 cbr 1000 ------- 0 4.0 0.3 4 83
c 0.892124 20 21 cbr 1014 ------- 0 4.0 0.3 4 83
c 0.892124 18 21 cbr 1014 ------- 0 4.0 0.3 4 83
c 0.892128 4 21 cbr 1014 ------- 0 20.0 0.19 0 19
h 0.9 1 21 cbr 1000 ------- 0 1.0 0.0 5 100
h 0.9 2 21 cbr 1000 ------- 0 2.0 0.1 5 101
h 0.9 3 21 cbr 1000 ------- 0 3.0 0.2 5 102
h 0.9 4 21 cbr 1000 ------- 0 4.0 0.3 5 103
h 0.9 5 21 cbr 1000 ------- 0 5.0 0.4 5 104
h 0.9 6 21 cbr 1000 ------- 0 6.0 0.5 5 105
h 0.9 7 21 cbr 1000 ------- 0 7.0 0.6 5 106
h 0.9 8 21 cbr 1000 ------- 0 8.0 0.7 5 107
h 0.9 9 21 cbr 1000 ------- 0 9.0 0.8 5 108